MODEL 1
REMARK VINA RESULT:    -6.683      0.000      0.000
REMARK INTER + INTRA:          -7.789
REMARK INTER:                  -8.490
REMARK INTRA:                   0.701
REMARK UNBOUND:                 0.652
REMARK SMILES CC(C)Cc1ccc([C@@H](C)C(=O)O)cc1
REMARK SMILES IDX 5 1 8 2 6 3 15 4 7 5 14 6 9 7 10 8 11 9 12 10 13 11 4 13
REMARK SMILES IDX 2 14 1 15 3 16
REMARK H PARENT 13 12
ROOT
ATOM      1  C   UNL     1      11.283   4.205  -7.911  1.00  0.00    -0.048 A 
ATOM      2  C   UNL     1      11.738   6.966  -7.492  1.00  0.00    -0.034 A 
ATOM      3  C   UNL     1      12.457   4.650  -7.292  1.00  0.00     0.004 A 
ATOM      4  C   UNL     1      10.336   5.154  -8.313  1.00  0.00     0.004 A 
ATOM      5  C   UNL     1      12.682   6.013  -7.085  1.00  0.00     0.005 A 
ATOM      6  C   UNL     1      10.561   6.518  -8.109  1.00  0.00     0.005 A 
ENDROOT
BRANCH   2   7
ATOM      7  C   UNL     1      11.956   8.456  -7.270  1.00  0.00     0.126 C 
ATOM      8  C   UNL     1      10.663   9.167  -6.869  1.00  0.00     0.025 C 
BRANCH   7   9
ATOM      9  C   UNL     1      13.036   8.762  -6.247  1.00  0.00     0.310 C 
ATOM     10  O   UNL     1      12.923   8.866  -5.036  1.00  0.00    -0.252 OA
BRANCH   9  11
ATOM     11  O   UNL     1      14.238   8.981  -6.824  1.00  0.00    -0.481 OA
ATOM     12  H   UNL     1      14.530   9.831  -6.432  1.00  0.00     0.296 HD
ENDBRANCH   9  11
ENDBRANCH   7   9
ENDBRANCH   2   7
BRANCH   1  13
ATOM     13  C   UNL     1      11.043   2.731  -8.137  1.00  0.00     0.038 C 
BRANCH  13  14
ATOM     14  C   UNL     1       9.710   2.352  -8.817  1.00  0.00    -0.013 C 
ATOM     15  C   UNL     1       9.907   1.600 -10.135  1.00  0.00     0.008 C 
ATOM     16  C   UNL     1       8.771   1.576  -7.894  1.00  0.00     0.008 C 
ENDBRANCH  13  14
ENDBRANCH   1  13
TORSDOF 5
BEGIN_RES MET A 624
REMARK  4 active torsions:
REMARK  status: ('A' for Active; 'I' for Inactive)
REMARK    1  A    between atoms: CA   and  CB  
REMARK    2  A    between atoms: CB   and  CG  
REMARK    3  A    between atoms: CG   and  SD  
REMARK    4  A    between atoms: SD   and  CE  
ROOT
ATOM      1  CA  MET A 624      14.156  -1.311 -16.529  1.00 37.55     0.090 C 
ENDROOT
BRANCH   1   2
ATOM      2  CB  MET A 624      14.290  -0.416 -17.759  1.00 35.24    -0.030 C 
ATOM      3  HB2 MET A 624      15.001  -0.851 -18.500  1.00  0.00     0.037 H 
ATOM      4  HB1 MET A 624      13.361  -0.433 -18.375  1.00  0.00     0.037 H 
BRANCH   2   5
ATOM      5  CG  MET A 624      14.680   1.006 -17.389  1.00 41.56    -0.021 C 
ATOM      6  HG2 MET A 624      15.733   1.206 -17.699  1.00  0.00     0.049 H 
ATOM      7  HG1 MET A 624      14.778   1.099 -16.283  1.00  0.00     0.049 H 
BRANCH   5   8
ATOM      8  SD  MET A 624      13.597   2.296 -18.021  1.00 46.36    -0.173 SA
BRANCH   8   9
ATOM      9  CE  MET A 624      14.691   3.158 -19.146  1.00 43.21    -0.035 C 
ATOM     10  HE3 MET A 624      15.473   3.788 -18.661  1.00  0.00     0.041 H 
ATOM     11  HE1 MET A 624      13.962   3.713 -19.783  1.00  0.00     0.041 H 
ATOM     12  HE2 MET A 624      15.411   2.511 -19.700  1.00  0.00     0.041 H 
ENDBRANCH   8   9
ENDBRANCH   5   8
ENDBRANCH   2   5
ENDBRANCH   1   2
END_RES MET A 624
BEGIN_RES LEU A 625
REMARK  4 active torsions:
REMARK  status: ('A' for Active; 'I' for Inactive)
REMARK    5  A    between atoms: CA   and  CB  
REMARK    6  A    between atoms: CB   and  CG  
REMARK    7  A    between atoms: CG   and  CD1 
REMARK    8  A    between atoms: CG   and  CD2 
ROOT
ATOM     13  CA  LEU A 625      17.135  -3.624 -16.776  1.00 49.20     0.089 C 
ENDROOT
BRANCH  13  14
ATOM     14  CB  LEU A 625      17.051  -5.150 -16.753  1.00 47.95    -0.035 C 
ATOM     15  HB2 LEU A 625      16.543  -5.506 -17.679  1.00  0.00     0.037 H 
ATOM     16  HB1 LEU A 625      18.070  -5.578 -16.898  1.00  0.00     0.037 H 
BRANCH  14  17
ATOM     17  CG  LEU A 625      16.398  -5.799 -15.537  1.00 41.83    -0.059 C 
ATOM     18  HG  LEU A 625      15.686  -5.073 -15.080  1.00  0.00     0.038 H 
BRANCH  17  19
ATOM     19  CD1 LEU A 625      15.629  -7.023 -15.982  1.00 45.22    -0.073 C 
ATOM     20 3HD1 LEU A 625      14.757  -6.764 -16.628  1.00  0.00     0.028 H 
ATOM     21 2HD1 LEU A 625      16.197  -7.634 -16.723  1.00  0.00     0.028 H 
ATOM     22 1HD1 LEU A 625      15.332  -7.613 -15.084  1.00  0.00     0.028 H 
ENDBRANCH  17  19
BRANCH  17  23
ATOM     23  CD2 LEU A 625      17.452  -6.163 -14.508  1.00 48.58    -0.073 C 
ATOM     24 1HD2 LEU A 625      18.081  -7.005 -14.881  1.00  0.00     0.028 H 
ATOM     25 3HD2 LEU A 625      18.070  -5.281 -14.214  1.00  0.00     0.028 H 
ATOM     26 2HD2 LEU A 625      17.003  -6.387 -13.513  1.00  0.00     0.028 H 
ENDBRANCH  17  23
ENDBRANCH  14  17
ENDBRANCH  13  14
END_RES LEU A 625
BEGIN_RES CYS A 673
REMARK  1 active torsions:
REMARK  status: ('A' for Active; 'I' for Inactive)
REMARK    9  A    between atoms: CA   and  CB  
ROOT
ATOM     27  CA  CYS A 673       6.053  10.339  -6.366  1.00 37.53     0.098 C 
ENDROOT
BRANCH  27  28
ATOM     28  CB  CYS A 673       6.430   9.481  -5.160  1.00 34.59     0.013 C 
ATOM     29  SG  CYS A 673       5.021   8.531  -4.520  1.00 37.22    -0.095 SA
ATOM     30  HB1 CYS A 673       7.291   8.813  -5.395  1.00  0.00     0.053 H 
ATOM     31  HB2 CYS A 673       6.897  10.098  -4.358  1.00  0.00     0.053 H 
ENDBRANCH  27  28
END_RES CYS A 673
ENDMDL
MODEL 2
REMARK VINA RESULT:    -6.622      2.869      5.259
REMARK INTER + INTRA:          -7.712
REMARK INTER:                  -8.459
REMARK INTRA:                   0.747
REMARK UNBOUND:                 0.652
REMARK SMILES CC(C)Cc1ccc([C@@H](C)C(=O)O)cc1
REMARK SMILES IDX 5 1 8 2 6 3 15 4 7 5 14 6 9 7 10 8 11 9 12 10 13 11 4 13
REMARK SMILES IDX 2 14 1 15 3 16
REMARK H PARENT 13 12
ROOT
ATOM      1  C   UNL     1      11.721   5.790  -7.775  1.00  0.00    -0.048 A 
ATOM      2  C   UNL     1      10.311   3.414  -8.388  1.00  0.00    -0.034 A 
ATOM      3  C   UNL     1      12.326   4.538  -7.615  1.00  0.00     0.004 A 
ATOM      4  C   UNL     1      10.405   5.842  -8.251  1.00  0.00     0.004 A 
ATOM      5  C   UNL     1      11.630   3.365  -7.917  1.00  0.00     0.005 A 
ATOM      6  C   UNL     1       9.708   4.669  -8.552  1.00  0.00     0.005 A 
ENDROOT
BRANCH   2   7
ATOM      7  C   UNL     1       9.535   2.151  -8.732  1.00  0.00     0.126 C 
ATOM      8  C   UNL     1       9.986   1.552 -10.064  1.00  0.00     0.025 C 
BRANCH   7   9
ATOM      9  C   UNL     1       9.606   1.085  -7.652  1.00  0.00     0.310 C 
ATOM     10  O   UNL     1      10.416   0.181  -7.535  1.00  0.00    -0.252 OA
BRANCH   9  11
ATOM     11  O   UNL     1       8.587   1.186  -6.769  1.00  0.00    -0.481 OA
ATOM     12  H   UNL     1       8.582   0.311  -6.325  1.00  0.00     0.296 HD
ENDBRANCH   9  11
ENDBRANCH   7   9
ENDBRANCH   2   7
BRANCH   1  13
ATOM     13  C   UNL     1      12.473   7.057  -7.445  1.00  0.00     0.038 C 
BRANCH  13  14
ATOM     14  C   UNL     1      11.710   8.107  -6.610  1.00  0.00    -0.013 C 
ATOM     15  C   UNL     1      12.542   8.669  -5.456  1.00  0.00     0.008 C 
ATOM     16  C   UNL     1      11.140   9.243  -7.460  1.00  0.00     0.008 C 
ENDBRANCH  13  14
ENDBRANCH   1  13
TORSDOF 5
BEGIN_RES MET A 624
REMARK  4 active torsions:
REMARK  status: ('A' for Active; 'I' for Inactive)
REMARK    1  A    between atoms: CA   and  CB  
REMARK    2  A    between atoms: CB   and  CG  
REMARK    3  A    between atoms: CG   and  SD  
REMARK    4  A    between atoms: SD   and  CE  
ROOT
ATOM      1  CA  MET A 624      14.156  -1.311 -16.529  1.00 37.55     0.090 C 
ENDROOT
BRANCH   1   2
ATOM      2  CB  MET A 624      14.290  -0.416 -17.759  1.00 35.24    -0.030 C 
ATOM      3  HB2 MET A 624      15.018  -0.839 -18.490  1.00  0.00     0.037 H 
ATOM      4  HB1 MET A 624      13.370  -0.451 -18.386  1.00  0.00     0.037 H 
BRANCH   2   5
ATOM      5  CG  MET A 624      14.650   1.013 -17.387  1.00 41.56    -0.021 C 
ATOM      6  HG2 MET A 624      15.691   1.242 -17.716  1.00  0.00     0.049 H 
ATOM      7  HG1 MET A 624      14.768   1.102 -16.282  1.00  0.00     0.049 H 
BRANCH   5   8
ATOM      8  SD  MET A 624      13.522   2.279 -17.989  1.00 46.36    -0.173 SA
BRANCH   8   9
ATOM      9  CE  MET A 624      14.573   3.180 -19.125  1.00 43.21    -0.035 C 
ATOM     10  HE3 MET A 624      15.174   2.549 -19.820  1.00  0.00     0.041 H 
ATOM     11  HE1 MET A 624      15.165   3.813 -18.424  1.00  0.00     0.041 H 
ATOM     12  HE2 MET A 624      14.037   3.735 -19.930  1.00  0.00     0.041 H 
ENDBRANCH   8   9
ENDBRANCH   5   8
ENDBRANCH   2   5
ENDBRANCH   1   2
END_RES MET A 624
BEGIN_RES LEU A 625
REMARK  4 active torsions:
REMARK  status: ('A' for Active; 'I' for Inactive)
REMARK    5  A    between atoms: CA   and  CB  
REMARK    6  A    between atoms: CB   and  CG  
REMARK    7  A    between atoms: CG   and  CD1 
REMARK    8  A    between atoms: CG   and  CD2 
ROOT
ATOM     13  CA  LEU A 625      17.135  -3.624 -16.776  1.00 49.20     0.089 C 
ENDROOT
BRANCH  13  14
ATOM     14  CB  LEU A 625      17.051  -5.150 -16.753  1.00 47.95    -0.035 C 
ATOM     15  HB2 LEU A 625      16.546  -5.506 -17.681  1.00  0.00     0.037 H 
ATOM     16  HB1 LEU A 625      18.071  -5.578 -16.894  1.00  0.00     0.037 H 
BRANCH  14  17
ATOM     17  CG  LEU A 625      16.394  -5.799 -15.539  1.00 41.83    -0.059 C 
ATOM     18  HG  LEU A 625      15.686  -5.069 -15.080  1.00  0.00     0.038 H 
BRANCH  17  19
ATOM     19  CD1 LEU A 625      15.617  -7.016 -15.989  1.00 45.22    -0.073 C 
ATOM     20 3HD1 LEU A 625      14.545  -6.784 -16.191  1.00  0.00     0.028 H 
ATOM     21 2HD1 LEU A 625      15.902  -7.346 -17.015  1.00  0.00     0.028 H 
ATOM     22 1HD1 LEU A 625      15.741  -7.827 -15.233  1.00  0.00     0.028 H 
ENDBRANCH  17  19
BRANCH  17  23
ATOM     23  CD2 LEU A 625      17.446  -6.173 -14.512  1.00 48.58    -0.073 C 
ATOM     24 1HD2 LEU A 625      17.148  -5.802 -13.503  1.00  0.00     0.028 H 
ATOM     25 3HD2 LEU A 625      17.654  -7.268 -14.508  1.00  0.00     0.028 H 
ATOM     26 2HD2 LEU A 625      18.460  -5.814 -14.804  1.00  0.00     0.028 H 
ENDBRANCH  17  23
ENDBRANCH  14  17
ENDBRANCH  13  14
END_RES LEU A 625
BEGIN_RES CYS A 673
REMARK  1 active torsions:
REMARK  status: ('A' for Active; 'I' for Inactive)
REMARK    9  A    between atoms: CA   and  CB  
ROOT
ATOM     27  CA  CYS A 673       6.053  10.339  -6.366  1.00 37.53     0.098 C 
ENDROOT
BRANCH  27  28
ATOM     28  CB  CYS A 673       6.430   9.481  -5.160  1.00 34.59     0.013 C 
ATOM     29  SG  CYS A 673       5.023   8.524  -4.526  1.00 37.22    -0.095 SA
ATOM     30  HB1 CYS A 673       7.295   8.818  -5.393  1.00  0.00     0.053 H 
ATOM     31  HB2 CYS A 673       6.891  10.099  -4.355  1.00  0.00     0.053 H 
ENDBRANCH  27  28
END_RES CYS A 673
ENDMDL
MODEL 3
REMARK VINA RESULT:    -6.594      3.389      5.841
REMARK INTER + INTRA:          -7.677
REMARK INTER:                  -8.329
REMARK INTRA:                   0.652
REMARK UNBOUND:                 0.652
REMARK SMILES CC(C)Cc1ccc([C@@H](C)C(=O)O)cc1
REMARK SMILES IDX 5 1 8 2 6 3 15 4 7 5 14 6 9 7 10 8 11 9 12 10 13 11 4 13
REMARK SMILES IDX 2 14 1 15 3 16
REMARK H PARENT 13 12
ROOT
ATOM      1  C   UNL     1      11.528   3.665  -7.780  1.00  0.00    -0.048 A 
ATOM      2  C   UNL     1       9.609   1.613  -8.125  1.00  0.00    -0.034 A 
ATOM      3  C   UNL     1      10.173   3.974  -7.949  1.00  0.00     0.004 A 
ATOM      4  C   UNL     1      11.913   2.319  -7.780  1.00  0.00     0.004 A 
ATOM      5  C   UNL     1       9.226   2.961  -8.120  1.00  0.00     0.005 A 
ATOM      6  C   UNL     1      10.966   1.305  -7.952  1.00  0.00     0.005 A 
ENDROOT
BRANCH   2   7
ATOM      7  C   UNL     1       8.596   0.492  -8.301  1.00  0.00     0.126 C 
ATOM      8  C   UNL     1       9.108  -0.596  -9.245  1.00  0.00     0.025 C 
BRANCH   7   9
ATOM      9  C   UNL     1       8.164  -0.143  -6.990  1.00  0.00     0.310 C 
ATOM     10  O   UNL     1       7.570   0.375  -6.059  1.00  0.00    -0.252 OA
BRANCH   9  11
ATOM     11  O   UNL     1       8.560  -1.432  -6.893  1.00  0.00    -0.481 OA
ATOM     12  H   UNL     1       9.000  -1.471  -6.017  1.00  0.00     0.296 HD
ENDBRANCH   9  11
ENDBRANCH   7   9
ENDBRANCH   2   7
BRANCH   1  13
ATOM     13  C   UNL     1      12.551   4.760  -7.599  1.00  0.00     0.038 C 
BRANCH  13  14
ATOM     14  C   UNL     1      12.221   5.838  -6.546  1.00  0.00    -0.013 C 
ATOM     15  C   UNL     1      13.278   5.941  -5.446  1.00  0.00     0.008 C 
ATOM     16  C   UNL     1      11.957   7.212  -7.164  1.00  0.00     0.008 C 
ENDBRANCH  13  14
ENDBRANCH   1  13
TORSDOF 5
BEGIN_RES MET A 624
REMARK  4 active torsions:
REMARK  status: ('A' for Active; 'I' for Inactive)
REMARK    1  A    between atoms: CA   and  CB  
REMARK    2  A    between atoms: CB   and  CG  
REMARK    3  A    between atoms: CG   and  SD  
REMARK    4  A    between atoms: SD   and  CE  
ROOT
ATOM      1  CA  MET A 624      14.156  -1.311 -16.529  1.00 37.55     0.090 C 
ENDROOT
BRANCH   1   2
ATOM      2  CB  MET A 624      14.290  -0.416 -17.759  1.00 35.24    -0.030 C 
ATOM      3  HB2 MET A 624      15.007  -0.847 -18.497  1.00  0.00     0.037 H 
ATOM      4  HB1 MET A 624      13.364  -0.440 -18.379  1.00  0.00     0.037 H 
BRANCH   2   5
ATOM      5  CG  MET A 624      14.670   1.009 -17.388  1.00 41.56    -0.021 C 
ATOM      6  HG2 MET A 624      15.716   1.222 -17.712  1.00  0.00     0.049 H 
ATOM      7  HG1 MET A 624      14.783   1.098 -16.283  1.00  0.00     0.049 H 
BRANCH   5   8
ATOM      8  SD  MET A 624      13.564   2.289 -17.999  1.00 46.36    -0.173 SA
BRANCH   8   9
ATOM      9  CE  MET A 624      14.631   3.167 -19.137  1.00 43.21    -0.035 C 
ATOM     10  HE3 MET A 624      14.610   4.279 -19.048  1.00  0.00     0.041 H 
ATOM     11  HE1 MET A 624      14.289   2.762 -20.119  1.00  0.00     0.041 H 
ATOM     12  HE2 MET A 624      15.724   3.070 -18.937  1.00  0.00     0.041 H 
ENDBRANCH   8   9
ENDBRANCH   5   8
ENDBRANCH   2   5
ENDBRANCH   1   2
END_RES MET A 624
BEGIN_RES LEU A 625
REMARK  4 active torsions:
REMARK  status: ('A' for Active; 'I' for Inactive)
REMARK    5  A    between atoms: CA   and  CB  
REMARK    6  A    between atoms: CB   and  CG  
REMARK    7  A    between atoms: CG   and  CD1 
REMARK    8  A    between atoms: CG   and  CD2 
ROOT
ATOM     13  CA  LEU A 625      17.135  -3.624 -16.776  1.00 49.20     0.089 C 
ENDROOT
BRANCH  13  14
ATOM     14  CB  LEU A 625      17.051  -5.150 -16.753  1.00 47.95    -0.035 C 
ATOM     15  HB2 LEU A 625      16.548  -5.506 -17.682  1.00  0.00     0.037 H 
ATOM     16  HB1 LEU A 625      18.071  -5.578 -16.891  1.00  0.00     0.037 H 
BRANCH  14  17
ATOM     17  CG  LEU A 625      16.391  -5.799 -15.541  1.00 41.83    -0.059 C 
ATOM     18  HG  LEU A 625      15.671  -5.074 -15.092  1.00  0.00     0.038 H 
BRANCH  17  19
ATOM     19  CD1 LEU A 625      15.631  -7.027 -15.990  1.00 45.22    -0.073 C 
ATOM     20 3HD1 LEU A 625      15.828  -7.910 -15.336  1.00  0.00     0.028 H 
ATOM     21 2HD1 LEU A 625      14.534  -6.938 -15.806  1.00  0.00     0.028 H 
ATOM     22 1HD1 LEU A 625      15.867  -7.231 -17.060  1.00  0.00     0.028 H 
ENDBRANCH  17  19
BRANCH  17  23
ATOM     23  CD2 LEU A 625      17.437  -6.155 -14.502  1.00 48.58    -0.073 C 
ATOM     24 1HD2 LEU A 625      17.255  -7.181 -14.107  1.00  0.00     0.028 H 
ATOM     25 3HD2 LEU A 625      18.474  -6.040 -14.898  1.00  0.00     0.028 H 
ATOM     26 2HD2 LEU A 625      17.489  -5.397 -13.686  1.00  0.00     0.028 H 
ENDBRANCH  17  23
ENDBRANCH  14  17
ENDBRANCH  13  14
END_RES LEU A 625
BEGIN_RES CYS A 673
REMARK  1 active torsions:
REMARK  status: ('A' for Active; 'I' for Inactive)
REMARK    9  A    between atoms: CA   and  CB  
ROOT
ATOM     27  CA  CYS A 673       6.053  10.339  -6.366  1.00 37.53     0.098 C 
ENDROOT
BRANCH  27  28
ATOM     28  CB  CYS A 673       6.430   9.481  -5.160  1.00 34.59     0.013 C 
ATOM     29  SG  CYS A 673       5.023   8.524  -4.525  1.00 37.22    -0.095 SA
ATOM     30  HB1 CYS A 673       7.295   8.818  -5.394  1.00  0.00     0.053 H 
ATOM     31  HB2 CYS A 673       6.892  10.099  -4.356  1.00  0.00     0.053 H 
ENDBRANCH  27  28
END_RES CYS A 673
ENDMDL
