MODEL 1
REMARK VINA RESULT:    -5.587      0.000      0.000
REMARK INTER + INTRA:          -6.288
REMARK INTER:                  -6.756
REMARK INTRA:                   0.468
REMARK UNBOUND:                 0.442
REMARK SMILES CC(=O)Oc1ccccc1C(=O)O
REMARK SMILES IDX 5 1 10 2 6 3 9 4 7 5 8 6 4 7 2 8 3 9 1 10 11 11 12 12 13 13
REMARK H PARENT 13 14
ROOT
ATOM      1  C   UNL     1      10.099   2.352  -7.265  1.00  0.00     0.145 A 
ATOM      2  C   UNL     1      11.469   2.576  -7.461  1.00  0.00     0.102 A 
ATOM      3  C   UNL     1       9.160   3.365  -7.484  1.00  0.00     0.048 A 
ATOM      4  C   UNL     1      11.886   3.859  -7.851  1.00  0.00     0.019 A 
ATOM      5  C   UNL     1       9.591   4.631  -7.872  1.00  0.00     0.004 A 
ATOM      6  C   UNL     1      10.952   4.880  -8.052  1.00  0.00     0.001 A 
ENDROOT
BRANCH   1   7
ATOM      7  O   UNL     1       9.598   1.097  -6.906  1.00  0.00    -0.426 OA
BRANCH   7   8
ATOM      8  C   UNL     1       8.882   0.494  -7.934  1.00  0.00     0.308 C 
ATOM      9  O   UNL     1       9.281   0.269  -9.069  1.00  0.00    -0.252 OA
ATOM     10  C   UNL     1       7.521   0.122  -7.424  1.00  0.00     0.139 C 
ENDBRANCH   7   8
ENDBRANCH   1   7
BRANCH   2  11
ATOM     11  C   UNL     1      12.454   1.479  -7.273  1.00  0.00     0.339 C 
ATOM     12  O   UNL     1      13.434   1.486  -6.551  1.00  0.00    -0.246 OA
BRANCH  11  13
ATOM     13  O   UNL     1      12.161   0.390  -8.010  1.00  0.00    -0.478 OA
ATOM     14  H   UNL     1      13.038   0.009  -8.223  1.00  0.00     0.297 HD
ENDBRANCH  11  13
ENDBRANCH   2  11
TORSDOF 4
BEGIN_RES MET A 624
REMARK  4 active torsions:
REMARK  status: ('A' for Active; 'I' for Inactive)
REMARK    1  A    between atoms: CA   and  CB  
REMARK    2  A    between atoms: CB   and  CG  
REMARK    3  A    between atoms: CG   and  SD  
REMARK    4  A    between atoms: SD   and  CE  
ROOT
ATOM      1  CA  MET A 624      14.156  -1.311 -16.529  1.00 37.55     0.090 C 
ENDROOT
BRANCH   1   2
ATOM      2  CB  MET A 624      14.290  -0.416 -17.759  1.00 35.24    -0.030 C 
ATOM      3  HB2 MET A 624      15.017  -0.840 -18.490  1.00  0.00     0.037 H 
ATOM      4  HB1 MET A 624      13.369  -0.450 -18.386  1.00  0.00     0.037 H 
BRANCH   2   5
ATOM      5  CG  MET A 624      14.651   1.013 -17.387  1.00 41.56    -0.021 C 
ATOM      6  HG2 MET A 624      15.690   1.244 -17.723  1.00  0.00     0.049 H 
ATOM      7  HG1 MET A 624      14.778   1.099 -16.283  1.00  0.00     0.049 H 
BRANCH   5   8
ATOM      8  SD  MET A 624      13.517   2.278 -17.978  1.00 46.36    -0.173 SA
BRANCH   8   9
ATOM      9  CE  MET A 624      14.555   3.176 -19.128  1.00 43.21    -0.035 C 
ATOM     10  HE3 MET A 624      14.373   4.275 -19.175  1.00  0.00     0.041 H 
ATOM     11  HE1 MET A 624      14.365   2.622 -20.077  1.00  0.00     0.041 H 
ATOM     12  HE2 MET A 624      15.627   3.263 -18.834  1.00  0.00     0.041 H 
ENDBRANCH   8   9
ENDBRANCH   5   8
ENDBRANCH   2   5
ENDBRANCH   1   2
END_RES MET A 624
BEGIN_RES LEU A 625
REMARK  4 active torsions:
REMARK  status: ('A' for Active; 'I' for Inactive)
REMARK    5  A    between atoms: CA   and  CB  
REMARK    6  A    between atoms: CB   and  CG  
REMARK    7  A    between atoms: CG   and  CD1 
REMARK    8  A    between atoms: CG   and  CD2 
ROOT
ATOM     13  CA  LEU A 625      17.135  -3.624 -16.776  1.00 49.20     0.089 C 
ENDROOT
BRANCH  13  14
ATOM     14  CB  LEU A 625      17.051  -5.150 -16.753  1.00 47.95    -0.035 C 
ATOM     15  HB2 LEU A 625      16.546  -5.506 -17.681  1.00  0.00     0.037 H 
ATOM     16  HB1 LEU A 625      18.071  -5.578 -16.894  1.00  0.00     0.037 H 
BRANCH  14  17
ATOM     17  CG  LEU A 625      16.394  -5.799 -15.539  1.00 41.83    -0.059 C 
ATOM     18  HG  LEU A 625      15.672  -5.076 -15.091  1.00  0.00     0.038 H 
BRANCH  17  19
ATOM     19  CD1 LEU A 625      15.638  -7.031 -15.985  1.00 45.22    -0.073 C 
ATOM     20 3HD1 LEU A 625      15.233  -7.614 -15.124  1.00  0.00     0.028 H 
ATOM     21 2HD1 LEU A 625      14.669  -6.779 -16.474  1.00  0.00     0.028 H 
ATOM     22 1HD1 LEU A 625      16.298  -7.645 -16.641  1.00  0.00     0.028 H 
ENDBRANCH  17  19
BRANCH  17  23
ATOM     23  CD2 LEU A 625      17.443  -6.149 -14.501  1.00 48.58    -0.073 C 
ATOM     24 1HD2 LEU A 625      18.248  -5.378 -14.490  1.00  0.00     0.028 H 
ATOM     25 3HD2 LEU A 625      16.996  -6.298 -13.490  1.00  0.00     0.028 H 
ATOM     26 2HD2 LEU A 625      17.852  -7.176 -14.651  1.00  0.00     0.028 H 
ENDBRANCH  17  23
ENDBRANCH  14  17
ENDBRANCH  13  14
END_RES LEU A 625
BEGIN_RES CYS A 673
REMARK  1 active torsions:
REMARK  status: ('A' for Active; 'I' for Inactive)
REMARK    9  A    between atoms: CA   and  CB  
ROOT
ATOM     27  CA  CYS A 673       6.053  10.339  -6.366  1.00 37.53     0.098 C 
ENDROOT
BRANCH  27  28
ATOM     28  CB  CYS A 673       6.430   9.481  -5.160  1.00 34.59     0.013 C 
ATOM     29  SG  CYS A 673       5.019   8.536  -4.516  1.00 37.22    -0.095 SA
ATOM     30  HB1 CYS A 673       7.289   8.811  -5.397  1.00  0.00     0.053 H 
ATOM     31  HB2 CYS A 673       6.901  10.097  -4.360  1.00  0.00     0.053 H 
ENDBRANCH  27  28
END_RES CYS A 673
ENDMDL
MODEL 2
REMARK VINA RESULT:    -5.438      0.843      2.668
REMARK INTER + INTRA:          -6.108
REMARK INTER:                  -6.868
REMARK INTRA:                   0.760
REMARK UNBOUND:                 0.442
REMARK SMILES CC(=O)Oc1ccccc1C(=O)O
REMARK SMILES IDX 5 1 10 2 6 3 9 4 7 5 8 6 4 7 2 8 3 9 1 10 11 11 12 12 13 13
REMARK H PARENT 13 14
ROOT
ATOM      1  C   UNL     1      11.059   2.920  -7.061  1.00  0.00     0.145 A 
ATOM      2  C   UNL     1       9.774   2.822  -7.615  1.00  0.00     0.102 A 
ATOM      3  C   UNL     1      11.756   4.133  -7.058  1.00  0.00     0.048 A 
ATOM      4  C   UNL     1       9.211   3.966  -8.201  1.00  0.00     0.019 A 
ATOM      5  C   UNL     1      11.182   5.259  -7.643  1.00  0.00     0.004 A 
ATOM      6  C   UNL     1       9.913   5.176  -8.218  1.00  0.00     0.001 A 
ENDROOT
BRANCH   1   7
ATOM      7  O   UNL     1      11.678   1.836  -6.432  1.00  0.00    -0.426 OA
BRANCH   7   8
ATOM      8  C   UNL     1      12.510   1.125  -7.290  1.00  0.00     0.308 C 
ATOM      9  O   UNL     1      12.162   0.332  -8.155  1.00  0.00    -0.252 OA
ATOM     10  C   UNL     1      13.934   1.506  -7.012  1.00  0.00     0.139 C 
ENDBRANCH   7   8
ENDBRANCH   1   7
BRANCH   2  11
ATOM     11  C   UNL     1       9.021   1.541  -7.569  1.00  0.00     0.339 C 
ATOM     12  O   UNL     1       8.343   1.119  -6.651  1.00  0.00    -0.246 OA
BRANCH  11  13
ATOM     13  O   UNL     1       9.149   0.826  -8.704  1.00  0.00    -0.478 OA
ATOM     14  H   UNL     1       9.160  -0.103  -8.394  1.00  0.00     0.297 HD
ENDBRANCH  11  13
ENDBRANCH   2  11
TORSDOF 4
BEGIN_RES MET A 624
REMARK  4 active torsions:
REMARK  status: ('A' for Active; 'I' for Inactive)
REMARK    1  A    between atoms: CA   and  CB  
REMARK    2  A    between atoms: CB   and  CG  
REMARK    3  A    between atoms: CG   and  SD  
REMARK    4  A    between atoms: SD   and  CE  
ROOT
ATOM      1  CA  MET A 624      14.156  -1.311 -16.529  1.00 37.55     0.090 C 
ENDROOT
BRANCH   1   2
ATOM      2  CB  MET A 624      14.290  -0.416 -17.759  1.00 35.24    -0.030 C 
ATOM      3  HB2 MET A 624      15.015  -0.841 -18.492  1.00  0.00     0.037 H 
ATOM      4  HB1 MET A 624      13.368  -0.448 -18.384  1.00  0.00     0.037 H 
BRANCH   2   5
ATOM      5  CG  MET A 624      14.656   1.012 -17.388  1.00 41.56    -0.021 C 
ATOM      6  HG2 MET A 624      15.699   1.236 -17.714  1.00  0.00     0.049 H 
ATOM      7  HG1 MET A 624      14.771   1.101 -16.283  1.00  0.00     0.049 H 
BRANCH   5   8
ATOM      8  SD  MET A 624      13.535   2.282 -17.993  1.00 46.36    -0.173 SA
BRANCH   8   9
ATOM      9  CE  MET A 624      14.596   3.187 -19.116  1.00 43.21    -0.035 C 
ATOM     10  HE3 MET A 624      15.160   4.033 -18.660  1.00  0.00     0.041 H 
ATOM     11  HE1 MET A 624      13.877   3.472 -19.920  1.00  0.00     0.041 H 
ATOM     12  HE2 MET A 624      15.503   2.636 -19.462  1.00  0.00     0.041 H 
ENDBRANCH   8   9
ENDBRANCH   5   8
ENDBRANCH   2   5
ENDBRANCH   1   2
END_RES MET A 624
BEGIN_RES LEU A 625
REMARK  4 active torsions:
REMARK  status: ('A' for Active; 'I' for Inactive)
REMARK    5  A    between atoms: CA   and  CB  
REMARK    6  A    between atoms: CB   and  CG  
REMARK    7  A    between atoms: CG   and  CD1 
REMARK    8  A    between atoms: CG   and  CD2 
ROOT
ATOM     13  CA  LEU A 625      17.135  -3.624 -16.776  1.00 49.20     0.089 C 
ENDROOT
BRANCH  13  14
ATOM     14  CB  LEU A 625      17.051  -5.150 -16.753  1.00 47.95    -0.035 C 
ATOM     15  HB2 LEU A 625      16.545  -5.506 -17.680  1.00  0.00     0.037 H 
ATOM     16  HB1 LEU A 625      18.071  -5.578 -16.895  1.00  0.00     0.037 H 
BRANCH  14  17
ATOM     17  CG  LEU A 625      16.396  -5.799 -15.538  1.00 41.83    -0.059 C 
ATOM     18  HG  LEU A 625      15.667  -5.080 -15.095  1.00  0.00     0.038 H 
BRANCH  17  19
ATOM     19  CD1 LEU A 625      15.651  -7.038 -15.981  1.00 45.22    -0.073 C 
ATOM     20 3HD1 LEU A 625      14.561  -6.849 -16.125  1.00  0.00     0.028 H 
ATOM     21 2HD1 LEU A 625      15.899  -7.330 -17.029  1.00  0.00     0.028 H 
ATOM     22 1HD1 LEU A 625      15.846  -7.861 -15.254  1.00  0.00     0.028 H 
ENDBRANCH  17  19
BRANCH  17  23
ATOM     23  CD2 LEU A 625      17.444  -6.137 -14.495  1.00 48.58    -0.073 C 
ATOM     24 1HD2 LEU A 625      17.014  -6.041 -13.471  1.00  0.00     0.028 H 
ATOM     25 3HD2 LEU A 625      17.892  -7.144 -14.666  1.00  0.00     0.028 H 
ATOM     26 2HD2 LEU A 625      18.367  -5.525 -14.619  1.00  0.00     0.028 H 
ENDBRANCH  17  23
ENDBRANCH  14  17
ENDBRANCH  13  14
END_RES LEU A 625
BEGIN_RES CYS A 673
REMARK  1 active torsions:
REMARK  status: ('A' for Active; 'I' for Inactive)
REMARK    9  A    between atoms: CA   and  CB  
ROOT
ATOM     27  CA  CYS A 673       6.053  10.339  -6.366  1.00 37.53     0.098 C 
ENDROOT
BRANCH  27  28
ATOM     28  CB  CYS A 673       6.430   9.481  -5.160  1.00 34.59     0.013 C 
ATOM     29  SG  CYS A 673       5.020   8.535  -4.517  1.00 37.22    -0.095 SA
ATOM     30  HB1 CYS A 673       7.290   8.811  -5.396  1.00  0.00     0.053 H 
ATOM     31  HB2 CYS A 673       6.899  10.097  -4.359  1.00  0.00     0.053 H 
ENDBRANCH  27  28
END_RES CYS A 673
ENDMDL
MODEL 3
REMARK VINA RESULT:    -5.396      7.116      7.868
REMARK INTER + INTRA:          -6.058
REMARK INTER:                  -6.537
REMARK INTRA:                   0.478
REMARK UNBOUND:                 0.442
REMARK SMILES CC(=O)Oc1ccccc1C(=O)O
REMARK SMILES IDX 5 1 10 2 6 3 9 4 7 5 8 6 4 7 2 8 3 9 1 10 11 11 12 12 13 13
REMARK H PARENT 13 14
ROOT
ATOM      1  C   UNL     1      16.319  -4.712 -10.500  1.00  0.00     0.145 A 
ATOM      2  C   UNL     1      15.271  -5.286 -11.234  1.00  0.00     0.102 A 
ATOM      3  C   UNL     1      16.911  -3.510 -10.902  1.00  0.00     0.048 A 
ATOM      4  C   UNL     1      14.848  -4.643 -12.408  1.00  0.00     0.019 A 
ATOM      5  C   UNL     1      16.479  -2.885 -12.068  1.00  0.00     0.004 A 
ATOM      6  C   UNL     1      15.451  -3.451 -12.823  1.00  0.00     0.001 A 
ENDROOT
BRANCH   1   7
ATOM      7  O   UNL     1      16.780  -5.272  -9.305  1.00  0.00    -0.426 OA
BRANCH   7   8
ATOM      8  C   UNL     1      16.330  -4.583  -8.184  1.00  0.00     0.308 C 
ATOM      9  O   UNL     1      15.167  -4.335  -7.896  1.00  0.00    -0.252 OA
ATOM     10  C   UNL     1      17.512  -4.202  -7.343  1.00  0.00     0.139 C 
ENDBRANCH   7   8
ENDBRANCH   1   7
BRANCH   2  11
ATOM     11  C   UNL     1      14.615  -6.538 -10.772  1.00  0.00     0.339 C 
ATOM     12  O   UNL     1      14.807  -7.665 -11.188  1.00  0.00    -0.246 OA
BRANCH  11  13
ATOM     13  O   UNL     1      13.729  -6.320  -9.780  1.00  0.00    -0.478 OA
ATOM     14  H   UNL     1      13.922  -5.403  -9.494  1.00  0.00     0.297 HD
ENDBRANCH  11  13
ENDBRANCH   2  11
TORSDOF 4
BEGIN_RES MET A 624
REMARK  4 active torsions:
REMARK  status: ('A' for Active; 'I' for Inactive)
REMARK    1  A    between atoms: CA   and  CB  
REMARK    2  A    between atoms: CB   and  CG  
REMARK    3  A    between atoms: CG   and  SD  
REMARK    4  A    between atoms: SD   and  CE  
ROOT
ATOM      1  CA  MET A 624      14.156  -1.311 -16.529  1.00 37.55     0.090 C 
ENDROOT
BRANCH   1   2
ATOM      2  CB  MET A 624      14.290  -0.416 -17.759  1.00 35.24    -0.030 C 
ATOM      3  HB2 MET A 624      15.014  -0.842 -18.492  1.00  0.00     0.037 H 
ATOM      4  HB1 MET A 624      13.368  -0.447 -18.384  1.00  0.00     0.037 H 
BRANCH   2   5
ATOM      5  CG  MET A 624      14.657   1.012 -17.388  1.00 41.56    -0.021 C 
ATOM      6  HG2 MET A 624      15.703   1.232 -17.704  1.00  0.00     0.049 H 
ATOM      7  HG1 MET A 624      14.761   1.103 -16.282  1.00  0.00     0.049 H 
BRANCH   5   8
ATOM      8  SD  MET A 624      13.546   2.283 -18.008  1.00 46.36    -0.173 SA
BRANCH   8   9
ATOM      9  CE  MET A 624      14.608   3.154 -19.157  1.00 43.21    -0.035 C 
ATOM     10  HE3 MET A 624      15.443   2.551 -19.584  1.00  0.00     0.041 H 
ATOM     11  HE1 MET A 624      14.920   4.034 -18.547  1.00  0.00     0.041 H 
ATOM     12  HE2 MET A 624      14.145   3.398 -20.142  1.00  0.00     0.041 H 
ENDBRANCH   8   9
ENDBRANCH   5   8
ENDBRANCH   2   5
ENDBRANCH   1   2
END_RES MET A 624
BEGIN_RES LEU A 625
REMARK  4 active torsions:
REMARK  status: ('A' for Active; 'I' for Inactive)
REMARK    5  A    between atoms: CA   and  CB  
REMARK    6  A    between atoms: CB   and  CG  
REMARK    7  A    between atoms: CG   and  CD1 
REMARK    8  A    between atoms: CG   and  CD2 
ROOT
ATOM     13  CA  LEU A 625      17.135  -3.624 -16.776  1.00 49.20     0.089 C 
ENDROOT
BRANCH  13  14
ATOM     14  CB  LEU A 625      17.051  -5.150 -16.753  1.00 47.95    -0.035 C 
ATOM     15  HB2 LEU A 625      16.510  -5.504 -17.661  1.00  0.00     0.037 H 
ATOM     16  HB1 LEU A 625      18.064  -5.578 -16.935  1.00  0.00     0.037 H 
BRANCH  14  17
ATOM     17  CG  LEU A 625      16.442  -5.801 -15.516  1.00 41.83    -0.059 C 
ATOM     18  HG  LEU A 625      15.751  -5.073 -15.029  1.00  0.00     0.038 H 
BRANCH  17  19
ATOM     19  CD1 LEU A 625      15.650  -7.019 -15.936  1.00 45.22    -0.073 C 
ATOM     20 3HD1 LEU A 625      15.987  -7.425 -16.920  1.00  0.00     0.028 H 
ATOM     21 2HD1 LEU A 625      15.882  -7.913 -15.310  1.00  0.00     0.028 H 
ATOM     22 1HD1 LEU A 625      14.564  -6.768 -15.930  1.00  0.00     0.028 H 
ENDBRANCH  17  19
BRANCH  17  23
ATOM     23  CD2 LEU A 625      17.533  -6.174 -14.529  1.00 48.58    -0.073 C 
ATOM     24 1HD2 LEU A 625      18.377  -5.448 -14.595  1.00  0.00     0.028 H 
ATOM     25 3HD2 LEU A 625      17.141  -6.264 -13.489  1.00  0.00     0.028 H 
ATOM     26 2HD2 LEU A 625      17.876  -7.226 -14.666  1.00  0.00     0.028 H 
ENDBRANCH  17  23
ENDBRANCH  14  17
ENDBRANCH  13  14
END_RES LEU A 625
BEGIN_RES CYS A 673
REMARK  1 active torsions:
REMARK  status: ('A' for Active; 'I' for Inactive)
REMARK    9  A    between atoms: CA   and  CB  
ROOT
ATOM     27  CA  CYS A 673       6.053  10.339  -6.366  1.00 37.53     0.098 C 
ENDROOT
BRANCH  27  28
ATOM     28  CB  CYS A 673       6.430   9.481  -5.160  1.00 34.59     0.013 C 
ATOM     29  SG  CYS A 673       5.022   8.527  -4.523  1.00 37.22    -0.095 SA
ATOM     30  HB1 CYS A 673       7.293   8.816  -5.394  1.00  0.00     0.053 H 
ATOM     31  HB2 CYS A 673       6.894  10.098  -4.357  1.00  0.00     0.053 H 
ENDBRANCH  27  28
END_RES CYS A 673
ENDMDL
MODEL 4
REMARK VINA RESULT:    -5.383      2.860      4.031
REMARK INTER + INTRA:          -6.043
REMARK INTER:                  -6.634
REMARK INTRA:                   0.591
REMARK UNBOUND:                 0.442
REMARK SMILES CC(=O)Oc1ccccc1C(=O)O
REMARK SMILES IDX 5 1 10 2 6 3 9 4 7 5 8 6 4 7 2 8 3 9 1 10 11 11 12 12 13 13
REMARK H PARENT 13 14
ROOT
ATOM      1  C   UNL     1      10.908   5.715  -8.276  1.00  0.00     0.145 A 
ATOM      2  C   UNL     1      10.471   6.994  -7.902  1.00  0.00     0.102 A 
ATOM      3  C   UNL     1      12.176   5.248  -7.915  1.00  0.00     0.048 A 
ATOM      4  C   UNL     1      11.352   7.816  -7.183  1.00  0.00     0.019 A 
ATOM      5  C   UNL     1      13.037   6.077  -7.200  1.00  0.00     0.004 A 
ATOM      6  C   UNL     1      12.629   7.360  -6.837  1.00  0.00     0.001 A 
ENDROOT
BRANCH   1   7
ATOM      7  O   UNL     1      10.082   4.823  -8.967  1.00  0.00    -0.426 OA
BRANCH   7   8
ATOM      8  C   UNL     1       9.717   3.726  -8.194  1.00  0.00     0.308 C 
ATOM      9  O   UNL     1       9.204   3.752  -7.083  1.00  0.00    -0.252 OA
ATOM     10  C   UNL     1      10.024   2.471  -8.956  1.00  0.00     0.139 C 
ENDBRANCH   7   8
ENDBRANCH   1   7
BRANCH   2  11
ATOM     11  C   UNL     1       9.103   7.462  -8.248  1.00  0.00     0.339 C 
ATOM     12  O   UNL     1       8.783   8.565  -8.651  1.00  0.00    -0.246 OA
BRANCH  11  13
ATOM     13  O   UNL     1       8.171   6.504  -8.076  1.00  0.00    -0.478 OA
ATOM     14  H   UNL     1       8.509   5.985  -7.316  1.00  0.00     0.297 HD
ENDBRANCH  11  13
ENDBRANCH   2  11
TORSDOF 4
BEGIN_RES MET A 624
REMARK  4 active torsions:
REMARK  status: ('A' for Active; 'I' for Inactive)
REMARK    1  A    between atoms: CA   and  CB  
REMARK    2  A    between atoms: CB   and  CG  
REMARK    3  A    between atoms: CG   and  SD  
REMARK    4  A    between atoms: SD   and  CE  
ROOT
ATOM      1  CA  MET A 624      14.156  -1.311 -16.529  1.00 37.55     0.090 C 
ENDROOT
BRANCH   1   2
ATOM      2  CB  MET A 624      14.290  -0.416 -17.759  1.00 35.24    -0.030 C 
ATOM      3  HB2 MET A 624      15.021  -0.838 -18.488  1.00  0.00     0.037 H 
ATOM      4  HB1 MET A 624      13.371  -0.454 -18.388  1.00  0.00     0.037 H 
BRANCH   2   5
ATOM      5  CG  MET A 624      14.645   1.015 -17.387  1.00 41.56    -0.021 C 
ATOM      6  HG2 MET A 624      15.687   1.246 -17.711  1.00  0.00     0.049 H 
ATOM      7  HG1 MET A 624      14.758   1.104 -16.282  1.00  0.00     0.049 H 
BRANCH   5   8
ATOM      8  SD  MET A 624      13.517   2.277 -17.995  1.00 46.36    -0.173 SA
BRANCH   8   9
ATOM      9  CE  MET A 624      14.570   3.179 -19.127  1.00 43.21    -0.035 C 
ATOM     10  HE3 MET A 624      15.491   2.641 -19.453  1.00  0.00     0.041 H 
ATOM     11  HE1 MET A 624      14.746   4.124 -18.561  1.00  0.00     0.041 H 
ATOM     12  HE2 MET A 624      14.161   3.310 -20.156  1.00  0.00     0.041 H 
ENDBRANCH   8   9
ENDBRANCH   5   8
ENDBRANCH   2   5
ENDBRANCH   1   2
END_RES MET A 624
BEGIN_RES LEU A 625
REMARK  4 active torsions:
REMARK  status: ('A' for Active; 'I' for Inactive)
REMARK    5  A    between atoms: CA   and  CB  
REMARK    6  A    between atoms: CB   and  CG  
REMARK    7  A    between atoms: CG   and  CD1 
REMARK    8  A    between atoms: CG   and  CD2 
ROOT
ATOM     13  CA  LEU A 625      17.135  -3.624 -16.776  1.00 49.20     0.089 C 
ENDROOT
BRANCH  13  14
ATOM     14  CB  LEU A 625      17.051  -5.150 -16.753  1.00 47.95    -0.035 C 
ATOM     15  HB2 LEU A 625      16.550  -5.506 -17.683  1.00  0.00     0.037 H 
ATOM     16  HB1 LEU A 625      18.071  -5.578 -16.890  1.00  0.00     0.037 H 
BRANCH  14  17
ATOM     17  CG  LEU A 625      16.389  -5.799 -15.542  1.00 41.83    -0.059 C 
ATOM     18  HG  LEU A 625      15.669  -5.074 -15.093  1.00  0.00     0.038 H 
BRANCH  17  19
ATOM     19  CD1 LEU A 625      15.629  -7.026 -15.991  1.00 45.22    -0.073 C 
ATOM     20 3HD1 LEU A 625      14.961  -7.427 -15.193  1.00  0.00     0.028 H 
ATOM     21 2HD1 LEU A 625      14.844  -6.786 -16.747  1.00  0.00     0.028 H 
ATOM     22 1HD1 LEU A 625      16.354  -7.789 -16.361  1.00  0.00     0.028 H 
ENDBRANCH  17  19
BRANCH  17  23
ATOM     23  CD2 LEU A 625      17.435  -6.156 -14.502  1.00 48.58    -0.073 C 
ATOM     24 1HD2 LEU A 625      18.457  -5.941 -14.893  1.00  0.00     0.028 H 
ATOM     25 3HD2 LEU A 625      17.246  -5.646 -13.528  1.00  0.00     0.028 H 
ATOM     26 2HD2 LEU A 625      17.335  -7.211 -14.156  1.00  0.00     0.028 H 
ENDBRANCH  17  23
ENDBRANCH  14  17
ENDBRANCH  13  14
END_RES LEU A 625
BEGIN_RES CYS A 673
REMARK  1 active torsions:
REMARK  status: ('A' for Active; 'I' for Inactive)
REMARK    9  A    between atoms: CA   and  CB  
ROOT
ATOM     27  CA  CYS A 673       6.053  10.339  -6.366  1.00 37.53     0.098 C 
ENDROOT
BRANCH  27  28
ATOM     28  CB  CYS A 673       6.430   9.481  -5.160  1.00 34.59     0.013 C 
ATOM     29  SG  CYS A 673       5.039   8.478  -4.563  1.00 37.22    -0.095 SA
ATOM     30  HB1 CYS A 673       7.319   8.845  -5.381  1.00  0.00     0.053 H 
ATOM     31  HB2 CYS A 673       6.857  10.104  -4.341  1.00  0.00     0.053 H 
ENDBRANCH  27  28
END_RES CYS A 673
ENDMDL
MODEL 5
REMARK VINA RESULT:    -5.296      1.433      2.572
REMARK INTER + INTRA:          -5.938
REMARK INTER:                  -6.391
REMARK INTRA:                   0.453
REMARK UNBOUND:                 0.442
REMARK SMILES CC(=O)Oc1ccccc1C(=O)O
REMARK SMILES IDX 5 1 10 2 6 3 9 4 7 5 8 6 4 7 2 8 3 9 1 10 11 11 12 12 13 13
REMARK H PARENT 13 14
ROOT
ATOM      1  C   UNL     1      10.754   1.689  -8.163  1.00  0.00     0.145 A 
ATOM      2  C   UNL     1      11.127   2.988  -7.789  1.00  0.00     0.102 A 
ATOM      3  C   UNL     1      11.634   0.612  -8.017  1.00  0.00     0.048 A 
ATOM      4  C   UNL     1      12.425   3.193  -7.295  1.00  0.00     0.019 A 
ATOM      5  C   UNL     1      12.918   0.833  -7.524  1.00  0.00     0.004 A 
ATOM      6  C   UNL     1      13.315   2.121  -7.166  1.00  0.00     0.001 A 
ENDROOT
BRANCH   1   7
ATOM      7  O   UNL     1       9.472   1.394  -8.636  1.00  0.00    -0.426 OA
BRANCH   7   8
ATOM      8  C   UNL     1       8.712   0.684  -7.713  1.00  0.00     0.308 C 
ATOM      9  O   UNL     1       8.370   1.064  -6.601  1.00  0.00    -0.252 OA
ATOM     10  C   UNL     1       8.338  -0.641  -8.308  1.00  0.00     0.139 C 
ENDBRANCH   7   8
ENDBRANCH   1   7
BRANCH   2  11
ATOM     11  C   UNL     1      10.167   4.117  -7.902  1.00  0.00     0.339 C 
ATOM     12  O   UNL     1      10.283   5.115  -8.588  1.00  0.00    -0.246 OA
BRANCH  11  13
ATOM     13  O   UNL     1       9.072   3.942  -7.136  1.00  0.00    -0.478 OA
ATOM     14  H   UNL     1       8.882   2.984  -7.218  1.00  0.00     0.297 HD
ENDBRANCH  11  13
ENDBRANCH   2  11
TORSDOF 4
BEGIN_RES MET A 624
REMARK  4 active torsions:
REMARK  status: ('A' for Active; 'I' for Inactive)
REMARK    1  A    between atoms: CA   and  CB  
REMARK    2  A    between atoms: CB   and  CG  
REMARK    3  A    between atoms: CG   and  SD  
REMARK    4  A    between atoms: SD   and  CE  
ROOT
ATOM      1  CA  MET A 624      14.156  -1.311 -16.529  1.00 37.55     0.090 C 
ENDROOT
BRANCH   1   2
ATOM      2  CB  MET A 624      14.290  -0.416 -17.759  1.00 35.24    -0.030 C 
ATOM      3  HB2 MET A 624      15.004  -0.849 -18.499  1.00  0.00     0.037 H 
ATOM      4  HB1 MET A 624      13.362  -0.436 -18.376  1.00  0.00     0.037 H 
BRANCH   2   5
ATOM      5  CG  MET A 624      14.675   1.007 -17.389  1.00 41.56    -0.021 C 
ATOM      6  HG2 MET A 624      15.715   1.222 -17.731  1.00  0.00     0.049 H 
ATOM      7  HG1 MET A 624      14.809   1.091 -16.286  1.00  0.00     0.049 H 
BRANCH   5   8
ATOM      8  SD  MET A 624      13.558   2.290 -17.973  1.00 46.36    -0.173 SA
BRANCH   8   9
ATOM      9  CE  MET A 624      14.580   3.130 -19.179  1.00 43.21    -0.035 C 
ATOM     10  HE3 MET A 624      15.367   2.501 -19.656  1.00  0.00     0.041 H 
ATOM     11  HE1 MET A 624      14.957   3.996 -18.585  1.00  0.00     0.041 H 
ATOM     12  HE2 MET A 624      14.069   3.395 -20.135  1.00  0.00     0.041 H 
ENDBRANCH   8   9
ENDBRANCH   5   8
ENDBRANCH   2   5
ENDBRANCH   1   2
END_RES MET A 624
BEGIN_RES LEU A 625
REMARK  4 active torsions:
REMARK  status: ('A' for Active; 'I' for Inactive)
REMARK    5  A    between atoms: CA   and  CB  
REMARK    6  A    between atoms: CB   and  CG  
REMARK    7  A    between atoms: CG   and  CD1 
REMARK    8  A    between atoms: CG   and  CD2 
ROOT
ATOM     13  CA  LEU A 625      17.135  -3.624 -16.776  1.00 49.20     0.089 C 
ENDROOT
BRANCH  13  14
ATOM     14  CB  LEU A 625      17.051  -5.150 -16.753  1.00 47.95    -0.035 C 
ATOM     15  HB2 LEU A 625      16.531  -5.505 -17.673  1.00  0.00     0.037 H 
ATOM     16  HB1 LEU A 625      18.068  -5.578 -16.910  1.00  0.00     0.037 H 
BRANCH  14  17
ATOM     17  CG  LEU A 625      16.413  -5.800 -15.530  1.00 41.83    -0.059 C 
ATOM     18  HG  LEU A 625      15.706  -5.073 -15.064  1.00  0.00     0.038 H 
BRANCH  17  19
ATOM     19  CD1 LEU A 625      15.638  -7.023 -15.966  1.00 45.22    -0.073 C 
ATOM     20 3HD1 LEU A 625      15.021  -6.831 -16.876  1.00  0.00     0.028 H 
ATOM     21 2HD1 LEU A 625      16.300  -7.815 -16.390  1.00  0.00     0.028 H 
ATOM     22 1HD1 LEU A 625      15.028  -7.394 -15.109  1.00  0.00     0.028 H 
ENDBRANCH  17  19
BRANCH  17  23
ATOM     23  CD2 LEU A 625      17.479  -6.164 -14.514  1.00 48.58    -0.073 C 
ATOM     24 1HD2 LEU A 625      17.432  -7.254 -14.279  1.00  0.00     0.028 H 
ATOM     25 3HD2 LEU A 625      18.497  -5.854 -14.849  1.00  0.00     0.028 H 
ATOM     26 2HD2 LEU A 625      17.411  -5.537 -13.595  1.00  0.00     0.028 H 
ENDBRANCH  17  23
ENDBRANCH  14  17
ENDBRANCH  13  14
END_RES LEU A 625
BEGIN_RES CYS A 673
REMARK  1 active torsions:
REMARK  status: ('A' for Active; 'I' for Inactive)
REMARK    9  A    between atoms: CA   and  CB  
ROOT
ATOM     27  CA  CYS A 673       6.053  10.339  -6.366  1.00 37.53     0.098 C 
ENDROOT
BRANCH  27  28
ATOM     28  CB  CYS A 673       6.430   9.481  -5.160  1.00 34.59     0.013 C 
ATOM     29  SG  CYS A 673       5.019   8.538  -4.514  1.00 37.22    -0.095 SA
ATOM     30  HB1 CYS A 673       7.288   8.810  -5.397  1.00  0.00     0.053 H 
ATOM     31  HB2 CYS A 673       6.902  10.097  -4.360  1.00  0.00     0.053 H 
ENDBRANCH  27  28
END_RES CYS A 673
ENDMDL
MODEL 6
REMARK VINA RESULT:    -5.262      2.700      3.559
REMARK INTER + INTRA:          -5.896
REMARK INTER:                  -6.599
REMARK INTRA:                   0.703
REMARK UNBOUND:                 0.442
REMARK SMILES CC(=O)Oc1ccccc1C(=O)O
REMARK SMILES IDX 5 1 10 2 6 3 9 4 7 5 8 6 4 7 2 8 3 9 1 10 11 11 12 12 13 13
REMARK H PARENT 13 14
ROOT
ATOM      1  C   UNL     1      10.669   6.529  -8.126  1.00  0.00     0.145 A 
ATOM      2  C   UNL     1      11.774   6.937  -7.364  1.00  0.00     0.102 A 
ATOM      3  C   UNL     1       9.612   7.404  -8.394  1.00  0.00     0.048 A 
ATOM      4  C   UNL     1      11.780   8.240  -6.841  1.00  0.00     0.019 A 
ATOM      5  C   UNL     1       9.635   8.694  -7.870  1.00  0.00     0.004 A 
ATOM      6  C   UNL     1      10.715   9.111  -7.092  1.00  0.00     0.001 A 
ENDROOT
BRANCH   1   7
ATOM      7  O   UNL     1      10.598   5.259  -8.706  1.00  0.00    -0.426 OA
BRANCH   7   8
ATOM      8  C   UNL     1       9.629   4.456  -8.116  1.00  0.00     0.308 C 
ATOM      9  O   UNL     1       8.432   4.445  -8.374  1.00  0.00    -0.252 OA
ATOM     10  C   UNL     1      10.287   3.559  -7.111  1.00  0.00     0.139 C 
ENDBRANCH   7   8
ENDBRANCH   1   7
BRANCH   2  11
ATOM     11  C   UNL     1      12.916   6.015  -7.125  1.00  0.00     0.339 C 
ATOM     12  O   UNL     1      13.397   5.703  -6.052  1.00  0.00    -0.246 OA
BRANCH  11  13
ATOM     13  O   UNL     1      13.414   5.505  -8.269  1.00  0.00    -0.478 OA
ATOM     14  H   UNL     1      13.341   4.536  -8.142  1.00  0.00     0.297 HD
ENDBRANCH  11  13
ENDBRANCH   2  11
TORSDOF 4
BEGIN_RES MET A 624
REMARK  4 active torsions:
REMARK  status: ('A' for Active; 'I' for Inactive)
REMARK    1  A    between atoms: CA   and  CB  
REMARK    2  A    between atoms: CB   and  CG  
REMARK    3  A    between atoms: CG   and  SD  
REMARK    4  A    between atoms: SD   and  CE  
ROOT
ATOM      1  CA  MET A 624      14.156  -1.311 -16.529  1.00 37.55     0.090 C 
ENDROOT
BRANCH   1   2
ATOM      2  CB  MET A 624      14.290  -0.416 -17.759  1.00 35.24    -0.030 C 
ATOM      3  HB2 MET A 624      15.004  -0.849 -18.498  1.00  0.00     0.037 H 
ATOM      4  HB1 MET A 624      13.363  -0.437 -18.377  1.00  0.00     0.037 H 
BRANCH   2   5
ATOM      5  CG  MET A 624      14.674   1.008 -17.389  1.00 41.56    -0.021 C 
ATOM      6  HG2 MET A 624      15.720   1.218 -17.716  1.00  0.00     0.049 H 
ATOM      7  HG1 MET A 624      14.792   1.095 -16.284  1.00  0.00     0.049 H 
BRANCH   5   8
ATOM      8  SD  MET A 624      13.569   2.291 -17.994  1.00 46.36    -0.173 SA
BRANCH   8   9
ATOM      9  CE  MET A 624      14.632   3.162 -19.142  1.00 43.21    -0.035 C 
ATOM     10  HE3 MET A 624      14.447   2.946 -20.220  1.00  0.00     0.041 H 
ATOM     11  HE1 MET A 624      15.643   2.879 -18.767  1.00  0.00     0.041 H 
ATOM     12  HE2 MET A 624      14.445   4.259 -19.226  1.00  0.00     0.041 H 
ENDBRANCH   8   9
ENDBRANCH   5   8
ENDBRANCH   2   5
ENDBRANCH   1   2
END_RES MET A 624
BEGIN_RES LEU A 625
REMARK  4 active torsions:
REMARK  status: ('A' for Active; 'I' for Inactive)
REMARK    5  A    between atoms: CA   and  CB  
REMARK    6  A    between atoms: CB   and  CG  
REMARK    7  A    between atoms: CG   and  CD1 
REMARK    8  A    between atoms: CG   and  CD2 
ROOT
ATOM     13  CA  LEU A 625      17.135  -3.624 -16.776  1.00 49.20     0.089 C 
ENDROOT
BRANCH  13  14
ATOM     14  CB  LEU A 625      17.051  -5.150 -16.753  1.00 47.95    -0.035 C 
ATOM     15  HB2 LEU A 625      16.536  -5.505 -17.676  1.00  0.00     0.037 H 
ATOM     16  HB1 LEU A 625      18.069  -5.578 -16.906  1.00  0.00     0.037 H 
BRANCH  14  17
ATOM     17  CG  LEU A 625      16.407  -5.800 -15.532  1.00 41.83    -0.059 C 
ATOM     18  HG  LEU A 625      15.697  -5.074 -15.071  1.00  0.00     0.038 H 
BRANCH  17  19
ATOM     19  CD1 LEU A 625      15.636  -7.024 -15.972  1.00 45.22    -0.073 C 
ATOM     20 3HD1 LEU A 625      15.926  -7.363 -16.995  1.00  0.00     0.028 H 
ATOM     21 2HD1 LEU A 625      15.940  -7.940 -15.412  1.00  0.00     0.028 H 
ATOM     22 1HD1 LEU A 625      14.544  -6.817 -15.887  1.00  0.00     0.028 H 
ENDBRANCH  17  19
BRANCH  17  23
ATOM     23  CD2 LEU A 625      17.469  -6.162 -14.511  1.00 48.58    -0.073 C 
ATOM     24 1HD2 LEU A 625      18.485  -6.079 -14.964  1.00  0.00     0.028 H 
ATOM     25 3HD2 LEU A 625      17.377  -5.554 -13.581  1.00  0.00     0.028 H 
ATOM     26 2HD2 LEU A 625      17.293  -7.169 -14.066  1.00  0.00     0.028 H 
ENDBRANCH  17  23
ENDBRANCH  14  17
ENDBRANCH  13  14
END_RES LEU A 625
BEGIN_RES CYS A 673
REMARK  1 active torsions:
REMARK  status: ('A' for Active; 'I' for Inactive)
REMARK    9  A    between atoms: CA   and  CB  
ROOT
ATOM     27  CA  CYS A 673       6.053  10.339  -6.366  1.00 37.53     0.098 C 
ENDROOT
BRANCH  27  28
ATOM     28  CB  CYS A 673       6.430   9.481  -5.160  1.00 34.59     0.013 C 
ATOM     29  SG  CYS A 673       5.017   8.542  -4.511  1.00 37.22    -0.095 SA
ATOM     30  HB1 CYS A 673       7.286   8.807  -5.398  1.00  0.00     0.053 H 
ATOM     31  HB2 CYS A 673       6.905  10.096  -4.361  1.00  0.00     0.053 H 
ENDBRANCH  27  28
END_RES CYS A 673
ENDMDL
MODEL 7
REMARK VINA RESULT:    -5.242      2.663      4.179
REMARK INTER + INTRA:          -5.873
REMARK INTER:                  -6.711
REMARK INTRA:                   0.838
REMARK UNBOUND:                 0.442
REMARK SMILES CC(=O)Oc1ccccc1C(=O)O
REMARK SMILES IDX 5 1 10 2 6 3 9 4 7 5 8 6 4 7 2 8 3 9 1 10 11 11 12 12 13 13
REMARK H PARENT 13 14
ROOT
ATOM      1  C   UNL     1      10.862   5.942  -8.059  1.00  0.00     0.145 A 
ATOM      2  C   UNL     1      10.604   4.572  -7.904  1.00  0.00     0.102 A 
ATOM      3  C   UNL     1      11.947   6.552  -7.421  1.00  0.00     0.048 A 
ATOM      4  C   UNL     1      11.443   3.827  -7.061  1.00  0.00     0.019 A 
ATOM      5  C   UNL     1      12.770   5.797  -6.589  1.00  0.00     0.004 A 
ATOM      6  C   UNL     1      12.517   4.437  -6.405  1.00  0.00     0.001 A 
ENDROOT
BRANCH   1   7
ATOM      7  O   UNL     1      10.093   6.749  -8.903  1.00  0.00    -0.426 OA
BRANCH   7   8
ATOM      8  C   UNL     1       9.180   7.533  -8.206  1.00  0.00     0.308 C 
ATOM      9  O   UNL     1       8.052   7.209  -7.861  1.00  0.00    -0.252 OA
ATOM     10  C   UNL     1       9.811   8.861  -7.906  1.00  0.00     0.139 C 
ENDBRANCH   7   8
ENDBRANCH   1   7
BRANCH   2  11
ATOM     11  C   UNL     1       9.477   3.924  -8.626  1.00  0.00     0.339 C 
ATOM     12  O   UNL     1       9.548   3.025  -9.443  1.00  0.00    -0.246 OA
BRANCH  11  13
ATOM     13  O   UNL     1       8.280   4.437  -8.281  1.00  0.00    -0.478 OA
ATOM     14  H   UNL     1       7.998   3.880  -7.526  1.00  0.00     0.297 HD
ENDBRANCH  11  13
ENDBRANCH   2  11
TORSDOF 4
BEGIN_RES MET A 624
REMARK  4 active torsions:
REMARK  status: ('A' for Active; 'I' for Inactive)
REMARK    1  A    between atoms: CA   and  CB  
REMARK    2  A    between atoms: CB   and  CG  
REMARK    3  A    between atoms: CG   and  SD  
REMARK    4  A    between atoms: SD   and  CE  
ROOT
ATOM      1  CA  MET A 624      14.156  -1.311 -16.529  1.00 37.55     0.090 C 
ENDROOT
BRANCH   1   2
ATOM      2  CB  MET A 624      14.290  -0.416 -17.759  1.00 35.24    -0.030 C 
ATOM      3  HB2 MET A 624      14.979  -0.865 -18.513  1.00  0.00     0.037 H 
ATOM      4  HB1 MET A 624      13.351  -0.411 -18.359  1.00  0.00     0.037 H 
BRANCH   2   5
ATOM      5  CG  MET A 624      14.718   0.996 -17.393  1.00 41.56    -0.021 C 
ATOM      6  HG2 MET A 624      15.777   1.166 -17.701  1.00  0.00     0.049 H 
ATOM      7  HG1 MET A 624      14.817   1.089 -16.286  1.00  0.00     0.049 H 
BRANCH   5   8
ATOM      8  SD  MET A 624      13.673   2.313 -18.030  1.00 46.36    -0.173 SA
BRANCH   8   9
ATOM      9  CE  MET A 624      14.793   3.142 -19.156  1.00 43.21    -0.035 C 
ATOM     10  HE3 MET A 624      14.461   3.174 -20.220  1.00  0.00     0.041 H 
ATOM     11  HE1 MET A 624      15.743   2.589 -18.970  1.00  0.00     0.041 H 
ATOM     12  HE2 MET A 624      14.855   4.249 -19.036  1.00  0.00     0.041 H 
ENDBRANCH   8   9
ENDBRANCH   5   8
ENDBRANCH   2   5
ENDBRANCH   1   2
END_RES MET A 624
BEGIN_RES LEU A 625
REMARK  4 active torsions:
REMARK  status: ('A' for Active; 'I' for Inactive)
REMARK    5  A    between atoms: CA   and  CB  
REMARK    6  A    between atoms: CB   and  CG  
REMARK    7  A    between atoms: CG   and  CD1 
REMARK    8  A    between atoms: CG   and  CD2 
ROOT
ATOM     13  CA  LEU A 625      17.135  -3.624 -16.776  1.00 49.20     0.089 C 
ENDROOT
BRANCH  13  14
ATOM     14  CB  LEU A 625      17.051  -5.150 -16.753  1.00 47.95    -0.035 C 
ATOM     15  HB2 LEU A 625      16.553  -5.507 -17.685  1.00  0.00     0.037 H 
ATOM     16  HB1 LEU A 625      18.072  -5.578 -16.886  1.00  0.00     0.037 H 
BRANCH  14  17
ATOM     17  CG  LEU A 625      16.385  -5.799 -15.544  1.00 41.83    -0.059 C 
ATOM     18  HG  LEU A 625      15.649  -5.081 -15.110  1.00  0.00     0.038 H 
BRANCH  17  19
ATOM     19  CD1 LEU A 625      15.648  -7.041 -15.992  1.00 45.22    -0.073 C 
ATOM     20 3HD1 LEU A 625      14.813  -7.311 -15.303  1.00  0.00     0.028 H 
ATOM     21 2HD1 LEU A 625      15.041  -6.866 -16.912  1.00  0.00     0.028 H 
ATOM     22 1HD1 LEU A 625      16.380  -7.873 -16.119  1.00  0.00     0.028 H 
ENDBRANCH  17  19
BRANCH  17  23
ATOM     23  CD2 LEU A 625      17.423  -6.132 -14.489  1.00 48.58    -0.073 C 
ATOM     24 1HD2 LEU A 625      17.132  -7.058 -13.941  1.00  0.00     0.028 H 
ATOM     25 3HD2 LEU A 625      18.448  -6.208 -14.923  1.00  0.00     0.028 H 
ATOM     26 2HD2 LEU A 625      17.602  -5.277 -13.796  1.00  0.00     0.028 H 
ENDBRANCH  17  23
ENDBRANCH  14  17
ENDBRANCH  13  14
END_RES LEU A 625
BEGIN_RES CYS A 673
REMARK  1 active torsions:
REMARK  status: ('A' for Active; 'I' for Inactive)
REMARK    9  A    between atoms: CA   and  CB  
ROOT
ATOM     27  CA  CYS A 673       6.053  10.339  -6.366  1.00 37.53     0.098 C 
ENDROOT
BRANCH  27  28
ATOM     28  CB  CYS A 673       6.430   9.481  -5.160  1.00 34.59     0.013 C 
ATOM     29  SG  CYS A 673       5.025   8.517  -4.531  1.00 37.22    -0.095 SA
ATOM     30  HB1 CYS A 673       7.299   8.821  -5.392  1.00  0.00     0.053 H 
ATOM     31  HB2 CYS A 673       6.887  10.100  -4.353  1.00  0.00     0.053 H 
ENDBRANCH  27  28
END_RES CYS A 673
ENDMDL
MODEL 8
REMARK VINA RESULT:    -5.198      7.097      7.567
REMARK INTER + INTRA:          -5.819
REMARK INTER:                  -6.262
REMARK INTRA:                   0.442
REMARK UNBOUND:                 0.442
REMARK SMILES CC(=O)Oc1ccccc1C(=O)O
REMARK SMILES IDX 5 1 10 2 6 3 9 4 7 5 8 6 4 7 2 8 3 9 1 10 11 11 12 12 13 13
REMARK H PARENT 13 14
ROOT
ATOM      1  C   UNL     1      16.350  -4.613 -10.496  1.00  0.00     0.145 A 
ATOM      2  C   UNL     1      16.790  -3.375 -10.986  1.00  0.00     0.102 A 
ATOM      3  C   UNL     1      15.398  -5.369 -11.188  1.00  0.00     0.048 A 
ATOM      4  C   UNL     1      16.226  -2.889 -12.176  1.00  0.00     0.019 A 
ATOM      5  C   UNL     1      14.850  -4.873 -12.369  1.00  0.00     0.004 A 
ATOM      6  C   UNL     1      15.260  -3.634 -12.861  1.00  0.00     0.001 A 
ENDROOT
BRANCH   1   7
ATOM      7  O   UNL     1      16.881  -5.181  -9.335  1.00  0.00    -0.426 OA
BRANCH   7   8
ATOM      8  C   UNL     1      15.972  -5.195  -8.283  1.00  0.00     0.308 C 
ATOM      9  O   UNL     1      15.319  -4.246  -7.868  1.00  0.00    -0.252 OA
ATOM     10  C   UNL     1      15.883  -6.589  -7.736  1.00  0.00     0.139 C 
ENDBRANCH   7   8
ENDBRANCH   1   7
BRANCH   2  11
ATOM     11  C   UNL     1      17.838  -2.602 -10.269  1.00  0.00     0.339 C 
ATOM     12  O   UNL     1      18.949  -2.316 -10.676  1.00  0.00    -0.246 OA
BRANCH  11  13
ATOM     13  O   UNL     1      17.440  -2.206  -9.044  1.00  0.00    -0.478 OA
ATOM     14  H   UNL     1      17.098  -1.299  -9.193  1.00  0.00     0.297 HD
ENDBRANCH  11  13
ENDBRANCH   2  11
TORSDOF 4
BEGIN_RES MET A 624
REMARK  4 active torsions:
REMARK  status: ('A' for Active; 'I' for Inactive)
REMARK    1  A    between atoms: CA   and  CB  
REMARK    2  A    between atoms: CB   and  CG  
REMARK    3  A    between atoms: CG   and  SD  
REMARK    4  A    between atoms: SD   and  CE  
ROOT
ATOM      1  CA  MET A 624      14.156  -1.311 -16.529  1.00 37.55     0.090 C 
ENDROOT
BRANCH   1   2
ATOM      2  CB  MET A 624      14.290  -0.416 -17.759  1.00 35.24    -0.030 C 
ATOM      3  HB2 MET A 624      15.001  -0.851 -18.500  1.00  0.00     0.037 H 
ATOM      4  HB1 MET A 624      13.361  -0.433 -18.375  1.00  0.00     0.037 H 
BRANCH   2   5
ATOM      5  CG  MET A 624      14.680   1.006 -17.389  1.00 41.56    -0.021 C 
ATOM      6  HG2 MET A 624      15.733   1.205 -17.697  1.00  0.00     0.049 H 
ATOM      7  HG1 MET A 624      14.777   1.099 -16.283  1.00  0.00     0.049 H 
BRANCH   5   8
ATOM      8  SD  MET A 624      13.599   2.296 -18.024  1.00 46.36    -0.173 SA
BRANCH   8   9
ATOM      9  CE  MET A 624      14.691   3.148 -19.159  1.00 43.21    -0.035 C 
ATOM     10  HE3 MET A 624      14.301   4.113 -19.560  1.00  0.00     0.041 H 
ATOM     11  HE1 MET A 624      14.879   2.357 -19.922  1.00  0.00     0.041 H 
ATOM     12  HE2 MET A 624      15.604   3.592 -18.698  1.00  0.00     0.041 H 
ENDBRANCH   8   9
ENDBRANCH   5   8
ENDBRANCH   2   5
ENDBRANCH   1   2
END_RES MET A 624
BEGIN_RES LEU A 625
REMARK  4 active torsions:
REMARK  status: ('A' for Active; 'I' for Inactive)
REMARK    5  A    between atoms: CA   and  CB  
REMARK    6  A    between atoms: CB   and  CG  
REMARK    7  A    between atoms: CG   and  CD1 
REMARK    8  A    between atoms: CG   and  CD2 
ROOT
ATOM     13  CA  LEU A 625      17.135  -3.624 -16.776  1.00 49.20     0.089 C 
ENDROOT
BRANCH  13  14
ATOM     14  CB  LEU A 625      17.051  -5.150 -16.753  1.00 47.95    -0.035 C 
ATOM     15  HB2 LEU A 625      16.489  -5.502 -17.649  1.00  0.00     0.037 H 
ATOM     16  HB1 LEU A 625      18.060  -5.578 -16.959  1.00  0.00     0.037 H 
BRANCH  14  17
ATOM     17  CG  LEU A 625      16.470  -5.803 -15.503  1.00 41.83    -0.059 C 
ATOM     18  HG  LEU A 625      15.802  -5.070 -14.992  1.00  0.00     0.038 H 
BRANCH  17  19
ATOM     19  CD1 LEU A 625      15.653  -7.009 -15.908  1.00 45.22    -0.073 C 
ATOM     20 3HD1 LEU A 625      15.731  -7.226 -17.000  1.00  0.00     0.028 H 
ATOM     21 2HD1 LEU A 625      16.088  -7.963 -15.527  1.00  0.00     0.028 H 
ATOM     22 1HD1 LEU A 625      14.598  -6.862 -15.579  1.00  0.00     0.028 H 
ENDBRANCH  17  19
BRANCH  17  23
ATOM     23  CD2 LEU A 625      17.585  -6.194 -14.551  1.00 48.58    -0.073 C 
ATOM     24 1HD2 LEU A 625      17.160  -6.663 -13.632  1.00  0.00     0.028 H 
ATOM     25 3HD2 LEU A 625      18.341  -6.851 -15.041  1.00  0.00     0.028 H 
ATOM     26 2HD2 LEU A 625      18.249  -5.332 -14.309  1.00  0.00     0.028 H 
ENDBRANCH  17  23
ENDBRANCH  14  17
ENDBRANCH  13  14
END_RES LEU A 625
BEGIN_RES CYS A 673
REMARK  1 active torsions:
REMARK  status: ('A' for Active; 'I' for Inactive)
REMARK    9  A    between atoms: CA   and  CB  
ROOT
ATOM     27  CA  CYS A 673       6.053  10.339  -6.366  1.00 37.53     0.098 C 
ENDROOT
BRANCH  27  28
ATOM     28  CB  CYS A 673       6.430   9.481  -5.160  1.00 34.59     0.013 C 
ATOM     29  SG  CYS A 673       5.019   8.537  -4.515  1.00 37.22    -0.095 SA
ATOM     30  HB1 CYS A 673       7.288   8.810  -5.397  1.00  0.00     0.053 H 
ATOM     31  HB2 CYS A 673       6.901  10.097  -4.360  1.00  0.00     0.053 H 
ENDBRANCH  27  28
END_RES CYS A 673
ENDMDL
MODEL 9
REMARK VINA RESULT:    -5.162      3.521      4.906
REMARK INTER + INTRA:          -5.776
REMARK INTER:                  -6.359
REMARK INTRA:                   0.583
REMARK UNBOUND:                 0.442
REMARK SMILES CC(=O)Oc1ccccc1C(=O)O
REMARK SMILES IDX 5 1 10 2 6 3 9 4 7 5 8 6 4 7 2 8 3 9 1 10 11 11 12 12 13 13
REMARK H PARENT 13 14
ROOT
ATOM      1  C   UNL     1      11.791   7.079  -7.513  1.00  0.00     0.145 A 
ATOM      2  C   UNL     1      11.849   8.306  -6.836  1.00  0.00     0.102 A 
ATOM      3  C   UNL     1      10.652   6.702  -8.232  1.00  0.00     0.048 A 
ATOM      4  C   UNL     1      10.719   9.139  -6.866  1.00  0.00     0.019 A 
ATOM      5  C   UNL     1       9.541   7.542  -8.253  1.00  0.00     0.004 A 
ATOM      6  C   UNL     1       9.572   8.756  -7.569  1.00  0.00     0.001 A 
ENDROOT
BRANCH   1   7
ATOM      7  O   UNL     1      12.881   6.205  -7.557  1.00  0.00    -0.426 OA
BRANCH   7   8
ATOM      8  C   UNL     1      12.732   5.122  -6.698  1.00  0.00     0.308 C 
ATOM      9  O   UNL     1      12.537   5.167  -5.490  1.00  0.00    -0.252 OA
ATOM     10  C   UNL     1      12.818   3.855  -7.496  1.00  0.00     0.139 C 
ENDBRANCH   7   8
ENDBRANCH   1   7
BRANCH   2  11
ATOM     11  C   UNL     1      13.081   8.719  -6.114  1.00  0.00     0.339 C 
ATOM     12  O   UNL     1      13.179   9.024  -4.940  1.00  0.00    -0.246 OA
BRANCH  11  13
ATOM     13  O   UNL     1      14.168   8.727  -6.912  1.00  0.00    -0.478 OA
ATOM     14  H   UNL     1      13.793   8.802  -7.814  1.00  0.00     0.297 HD
ENDBRANCH  11  13
ENDBRANCH   2  11
TORSDOF 4
BEGIN_RES MET A 624
REMARK  4 active torsions:
REMARK  status: ('A' for Active; 'I' for Inactive)
REMARK    1  A    between atoms: CA   and  CB  
REMARK    2  A    between atoms: CB   and  CG  
REMARK    3  A    between atoms: CG   and  SD  
REMARK    4  A    between atoms: SD   and  CE  
ROOT
ATOM      1  CA  MET A 624      14.156  -1.311 -16.529  1.00 37.55     0.090 C 
ENDROOT
BRANCH   1   2
ATOM      2  CB  MET A 624      14.290  -0.416 -17.759  1.00 35.24    -0.030 C 
ATOM      3  HB2 MET A 624      15.023  -0.836 -18.487  1.00  0.00     0.037 H 
ATOM      4  HB1 MET A 624      13.372  -0.456 -18.390  1.00  0.00     0.037 H 
BRANCH   2   5
ATOM      5  CG  MET A 624      14.642   1.015 -17.387  1.00 41.56    -0.021 C 
ATOM      6  HG2 MET A 624      15.691   1.242 -17.690  1.00  0.00     0.049 H 
ATOM      7  HG1 MET A 624      14.732   1.110 -16.280  1.00  0.00     0.049 H 
BRANCH   5   8
ATOM      8  SD  MET A 624      13.530   2.278 -18.024  1.00 46.36    -0.173 SA
BRANCH   8   9
ATOM      9  CE  MET A 624      14.611   3.175 -19.135  1.00 43.21    -0.035 C 
ATOM     10  HE3 MET A 624      15.701   3.073 -18.923  1.00  0.00     0.041 H 
ATOM     11  HE1 MET A 624      14.204   4.210 -19.051  1.00  0.00     0.041 H 
ATOM     12  HE2 MET A 624      14.670   2.770 -20.172  1.00  0.00     0.041 H 
ENDBRANCH   8   9
ENDBRANCH   5   8
ENDBRANCH   2   5
ENDBRANCH   1   2
END_RES MET A 624
BEGIN_RES LEU A 625
REMARK  4 active torsions:
REMARK  status: ('A' for Active; 'I' for Inactive)
REMARK    5  A    between atoms: CA   and  CB  
REMARK    6  A    between atoms: CB   and  CG  
REMARK    7  A    between atoms: CG   and  CD1 
REMARK    8  A    between atoms: CG   and  CD2 
ROOT
ATOM     13  CA  LEU A 625      17.135  -3.624 -16.776  1.00 49.20     0.089 C 
ENDROOT
BRANCH  13  14
ATOM     14  CB  LEU A 625      17.051  -5.150 -16.753  1.00 47.95    -0.035 C 
ATOM     15  HB2 LEU A 625      16.532  -5.505 -17.674  1.00  0.00     0.037 H 
ATOM     16  HB1 LEU A 625      18.069  -5.578 -16.909  1.00  0.00     0.037 H 
BRANCH  14  17
ATOM     17  CG  LEU A 625      16.411  -5.800 -15.530  1.00 41.83    -0.059 C 
ATOM     18  HG  LEU A 625      15.702  -5.074 -15.067  1.00  0.00     0.038 H 
BRANCH  17  19
ATOM     19  CD1 LEU A 625      15.640  -7.025 -15.968  1.00 45.22    -0.073 C 
ATOM     20 3HD1 LEU A 625      15.842  -7.908 -15.317  1.00  0.00     0.028 H 
ATOM     21 2HD1 LEU A 625      14.546  -6.930 -15.769  1.00  0.00     0.028 H 
ATOM     22 1HD1 LEU A 625      15.860  -7.230 -17.042  1.00  0.00     0.028 H 
ENDBRANCH  17  19
BRANCH  17  23
ATOM     23  CD2 LEU A 625      17.476  -6.161 -14.512  1.00 48.58    -0.073 C 
ATOM     24 1HD2 LEU A 625      17.768  -7.232 -14.623  1.00  0.00     0.028 H 
ATOM     25 3HD2 LEU A 625      18.358  -5.482 -14.572  1.00  0.00     0.028 H 
ATOM     26 2HD2 LEU A 625      17.156  -5.923 -13.471  1.00  0.00     0.028 H 
ENDBRANCH  17  23
ENDBRANCH  14  17
ENDBRANCH  13  14
END_RES LEU A 625
BEGIN_RES CYS A 673
REMARK  1 active torsions:
REMARK  status: ('A' for Active; 'I' for Inactive)
REMARK    9  A    between atoms: CA   and  CB  
ROOT
ATOM     27  CA  CYS A 673       6.053  10.339  -6.366  1.00 37.53     0.098 C 
ENDROOT
BRANCH  27  28
ATOM     28  CB  CYS A 673       6.430   9.481  -5.160  1.00 34.59     0.013 C 
ATOM     29  SG  CYS A 673       5.019   8.537  -4.515  1.00 37.22    -0.095 SA
ATOM     30  HB1 CYS A 673       7.289   8.810  -5.397  1.00  0.00     0.053 H 
ATOM     31  HB2 CYS A 673       6.901  10.097  -4.360  1.00  0.00     0.053 H 
ENDBRANCH  27  28
END_RES CYS A 673
ENDMDL
