MODEL 1
REMARK VINA RESULT:   -11.240      0.000      0.000
REMARK INTER + INTRA:         -13.090
REMARK INTER:                 -13.555
REMARK INTRA:                   0.466
REMARK UNBOUND:                 1.107
REMARK SMILES Cn1cc(-c2cc3c(N4CCN(c5ncc([C@@](C)(N)c6ccc(F)cc6)cn5)CC4)ncnn3c2)cn1
REMARK SMILES IDX 14 1 28 2 13 3 16 4 15 5 27 6 17 7 18 8 20 9 23 10 22 11
REMARK SMILES IDX 25 12 21 13 26 14 24 15 19 16 12 19 11 20 29 21 10 22 30 23
REMARK SMILES IDX 9 24 8 25 31 26 7 27 32 28 34 29 6 30 33 31 35 32 5 33 4 34
REMARK SMILES IDX 3 35 36 36 2 37 37 38 1 39
REMARK H PARENT 19 17 19 18
ROOT
ATOM      1  N   UNL     1      13.787   1.250  -7.534  1.00  0.00    -0.221 NA
ATOM      2  N   UNL     1      15.845   2.296  -7.112  1.00  0.00    -0.221 NA
ATOM      3  C   UNL     1      14.509   2.341  -7.231  1.00  0.00     0.225 A 
ATOM      4  C   UNL     1      15.816  -0.065  -7.636  1.00  0.00     0.013 A 
ATOM      5  C   UNL     1      14.447   0.082  -7.718  1.00  0.00     0.122 A 
ATOM      6  C   UNL     1      16.462   1.109  -7.308  1.00  0.00     0.122 A 
ENDROOT
BRANCH   4   7
ATOM      7  C   UNL     1      16.542  -1.397  -7.796  1.00  0.00     0.067 C 
ATOM      8  C   UNL     1      17.954  -1.193  -7.193  1.00  0.00     0.038 C 
BRANCH   7   9
ATOM      9  C   UNL     1      16.554  -1.893  -9.260  1.00  0.00    -0.024 A 
ATOM     10  C   UNL     1      16.628  -2.865 -11.902  1.00  0.00     0.123 A 
ATOM     11  C   UNL     1      16.890  -3.729 -10.850  1.00  0.00     0.039 A 
ATOM     12  C   UNL     1      16.330  -1.531 -11.666  1.00  0.00     0.039 A 
ATOM     13  C   UNL     1      16.853  -3.248  -9.539  1.00  0.00     0.009 A 
ATOM     14  C   UNL     1      16.296  -1.045 -10.355  1.00  0.00     0.009 A 
ATOM     15  F   UNL     1      16.664  -3.323 -13.160  1.00  0.00    -0.207 F 
ENDBRANCH   7   9
BRANCH   7  16
ATOM     16  N   UNL     1      15.926  -2.462  -6.976  1.00  0.00    -0.318 NA
ATOM     17  H   UNL     1      14.914  -2.429  -7.107  1.00  0.00     0.120 HD
ATOM     18  H   UNL     1      16.076  -2.255  -5.990  1.00  0.00     0.120 HD
ENDBRANCH   7  16
ENDBRANCH   4   7
BRANCH   3  19
ATOM     19  N   UNL     1      13.857   3.546  -7.058  1.00  0.00    -0.337 N 
ATOM     20  C   UNL     1      14.170   4.641  -7.974  1.00  0.00     0.141 C 
ATOM     21  C   UNL     1      12.536   3.552  -6.424  1.00  0.00     0.141 C 
ATOM     22  C   UNL     1      13.540   5.969  -7.491  1.00  0.00     0.139 C 
ATOM     23  C   UNL     1      11.556   4.502  -7.147  1.00  0.00     0.139 C 
ATOM     24  N   UNL     1      12.084   5.876  -7.273  1.00  0.00    -0.351 N 
ATOM     25  C   UNL     1      11.216   6.925  -7.564  1.00  0.00     0.156 C 
ATOM     26  N   UNL     1      10.005   6.635  -7.955  1.00  0.00    -0.215 NA
ATOM     27  C   UNL     1      11.536   8.325  -7.460  1.00  0.00     0.108 A 
ATOM     28  C   UNL     1       9.127   7.635  -8.284  1.00  0.00     0.247 C 
ATOM     29  N   UNL     1      10.577   9.227  -7.826  1.00  0.00    -0.235 N 
ATOM     30  C   UNL     1      12.629   9.041  -7.006  1.00  0.00     0.042 A 
ATOM     31  N   UNL     1       9.347   8.911  -8.253  1.00  0.00    -0.156 NA
ATOM     32  C   UNL     1      11.055  10.500  -7.675  1.00  0.00     0.122 A 
ATOM     33  C   UNL     1      12.328  10.420  -7.159  1.00  0.00     0.005 A 
BRANCH  33  34
ATOM     34  C   UNL     1      13.220  11.517  -6.813  1.00  0.00     0.021 A 
ATOM     35  C   UNL     1      14.391  11.488  -6.092  1.00  0.00     0.117 A 
ATOM     36  C   UNL     1      13.051  12.872  -7.163  1.00  0.00     0.143 A 
ATOM     37  N   UNL     1      14.838  12.778  -6.052  1.00  0.00    -0.275 N 
ATOM     38  N   UNL     1      14.040  13.645  -6.701  1.00  0.00    -0.181 NA
ATOM     39  C   UNL     1      16.033  13.263  -5.406  1.00  0.00     0.173 C 
ENDBRANCH  33  34
ENDBRANCH   3  19
TORSDOF 5
BEGIN_RES MET A 624
REMARK  4 active torsions:
REMARK  status: ('A' for Active; 'I' for Inactive)
REMARK    1  A    between atoms: CA   and  CB  
REMARK    2  A    between atoms: CB   and  CG  
REMARK    3  A    between atoms: CG   and  SD  
REMARK    4  A    between atoms: SD   and  CE  
ROOT
ATOM      1  CA  MET A 624      14.156  -1.311 -16.529  1.00 37.55     0.090 C 
ENDROOT
BRANCH   1   2
ATOM      2  CB  MET A 624      14.290  -0.416 -17.759  1.00 35.24    -0.030 C 
ATOM      3  HB2 MET A 624      14.968  -0.871 -18.519  1.00  0.00     0.037 H 
ATOM      4  HB1 MET A 624      13.346  -0.400 -18.352  1.00  0.00     0.037 H 
BRANCH   2   5
ATOM      5  CG  MET A 624      14.736   0.991 -17.394  1.00 41.56    -0.021 C 
ATOM      6  HG2 MET A 624      15.781   1.163 -17.746  1.00  0.00     0.049 H 
ATOM      7  HG1 MET A 624      14.883   1.070 -16.292  1.00  0.00     0.049 H 
BRANCH   5   8
ATOM      8  SD  MET A 624      13.667   2.317 -17.971  1.00 46.36    -0.173 SA
BRANCH   8   9
ATOM      9  CE  MET A 624      14.724   3.134 -19.163  1.00 43.21    -0.035 C 
ATOM     10  HE3 MET A 624      14.540   2.861 -20.228  1.00  0.00     0.041 H 
ATOM     11  HE1 MET A 624      15.737   2.876 -18.773  1.00  0.00     0.041 H 
ATOM     12  HE2 MET A 624      14.531   4.223 -19.303  1.00  0.00     0.041 H 
ENDBRANCH   8   9
ENDBRANCH   5   8
ENDBRANCH   2   5
ENDBRANCH   1   2
END_RES MET A 624
BEGIN_RES LEU A 625
REMARK  4 active torsions:
REMARK  status: ('A' for Active; 'I' for Inactive)
REMARK    5  A    between atoms: CA   and  CB  
REMARK    6  A    between atoms: CB   and  CG  
REMARK    7  A    between atoms: CG   and  CD1 
REMARK    8  A    between atoms: CG   and  CD2 
ROOT
ATOM     13  CA  LEU A 625      17.135  -3.624 -16.776  1.00 49.20     0.089 C 
ENDROOT
BRANCH  13  14
ATOM     14  CB  LEU A 625      17.051  -5.150 -16.753  1.00 47.95    -0.035 C 
ATOM     15  HB2 LEU A 625      16.556  -5.507 -17.686  1.00  0.00     0.037 H 
ATOM     16  HB1 LEU A 625      18.072  -5.578 -16.883  1.00  0.00     0.037 H 
BRANCH  14  17
ATOM     17  CG  LEU A 625      16.381  -5.798 -15.546  1.00 41.83    -0.059 C 
ATOM     18  HG  LEU A 625      15.704  -5.053 -15.066  1.00  0.00     0.038 H 
BRANCH  17  19
ATOM     19  CD1 LEU A 625      15.557  -6.978 -16.011  1.00 45.22    -0.073 C 
ATOM     20 3HD1 LEU A 625      14.529  -6.974 -15.579  1.00  0.00     0.028 H 
ATOM     21 2HD1 LEU A 625      15.275  -6.899 -17.088  1.00  0.00     0.028 H 
ATOM     22 1HD1 LEU A 625      16.109  -7.920 -15.785  1.00  0.00     0.028 H 
ENDBRANCH  17  19
BRANCH  17  23
ATOM     23  CD2 LEU A 625      17.427  -6.230 -14.535  1.00 48.58    -0.073 C 
ATOM     24 1HD2 LEU A 625      17.870  -7.209 -14.833  1.00  0.00     0.028 H 
ATOM     25 3HD2 LEU A 625      18.209  -5.448 -14.385  1.00  0.00     0.028 H 
ATOM     26 2HD2 LEU A 625      17.019  -6.255 -13.498  1.00  0.00     0.028 H 
ENDBRANCH  17  23
ENDBRANCH  14  17
ENDBRANCH  13  14
END_RES LEU A 625
BEGIN_RES CYS A 673
REMARK  1 active torsions:
REMARK  status: ('A' for Active; 'I' for Inactive)
REMARK    9  A    between atoms: CA   and  CB  
ROOT
ATOM     27  CA  CYS A 673       6.053  10.339  -6.366  1.00 37.53     0.098 C 
ENDROOT
BRANCH  27  28
ATOM     28  CB  CYS A 673       6.430   9.481  -5.160  1.00 34.59     0.013 C 
ATOM     29  SG  CYS A 673       5.043   8.466  -4.573  1.00 37.22    -0.095 SA
ATOM     30  HB1 CYS A 673       7.325   8.852  -5.378  1.00  0.00     0.053 H 
ATOM     31  HB2 CYS A 673       6.848  10.106  -4.337  1.00  0.00     0.053 H 
ENDBRANCH  27  28
END_RES CYS A 673
ENDMDL
MODEL 2
REMARK VINA RESULT:   -11.046      0.457      1.234
REMARK INTER + INTRA:         -12.845
REMARK INTER:                 -13.368
REMARK INTRA:                   0.522
REMARK UNBOUND:                 1.107
REMARK SMILES Cn1cc(-c2cc3c(N4CCN(c5ncc([C@@](C)(N)c6ccc(F)cc6)cn5)CC4)ncnn3c2)cn1
REMARK SMILES IDX 14 1 28 2 13 3 16 4 15 5 27 6 17 7 18 8 20 9 23 10 22 11
REMARK SMILES IDX 25 12 21 13 26 14 24 15 19 16 12 19 11 20 29 21 10 22 30 23
REMARK SMILES IDX 9 24 8 25 31 26 7 27 32 28 34 29 6 30 33 31 35 32 5 33 4 34
REMARK SMILES IDX 3 35 36 36 2 37 37 38 1 39
REMARK H PARENT 19 17 19 18
ROOT
ATOM      1  N   UNL     1      16.092   2.305  -7.219  1.00  0.00    -0.221 NA
ATOM      2  N   UNL     1      14.059   1.181  -7.551  1.00  0.00    -0.221 NA
ATOM      3  C   UNL     1      14.752   2.304  -7.306  1.00  0.00     0.225 A 
ATOM      4  C   UNL     1      16.122  -0.080  -7.629  1.00  0.00     0.013 A 
ATOM      5  C   UNL     1      16.741   1.129  -7.390  1.00  0.00     0.122 A 
ATOM      6  C   UNL     1      14.749   0.030  -7.713  1.00  0.00     0.122 A 
ENDROOT
BRANCH   4   7
ATOM      7  C   UNL     1      16.868  -1.388  -7.871  1.00  0.00     0.067 C 
ATOM      8  C   UNL     1      18.346  -1.117  -7.501  1.00  0.00     0.038 C 
BRANCH   7   9
ATOM      9  C   UNL     1      16.670  -1.926  -9.307  1.00  0.00    -0.024 A 
ATOM     10  C   UNL     1      16.270  -2.828 -11.943  1.00  0.00     0.123 A 
ATOM     11  C   UNL     1      16.277  -1.466 -11.682  1.00  0.00     0.039 A 
ATOM     12  C   UNL     1      16.457  -3.747 -10.921  1.00  0.00     0.039 A 
ATOM     13  C   UNL     1      16.476  -1.018 -10.374  1.00  0.00     0.009 A 
ATOM     14  C   UNL     1      16.654  -3.301  -9.610  1.00  0.00     0.009 A 
ATOM     15  F   UNL     1      16.077  -3.262 -13.196  1.00  0.00    -0.207 F 
ENDBRANCH   7   9
BRANCH   7  16
ATOM     16  N   UNL     1      16.430  -2.451  -6.940  1.00  0.00    -0.318 NA
ATOM     17  H   UNL     1      15.411  -2.515  -6.975  1.00  0.00     0.120 HD
ATOM     18  H   UNL     1      16.648  -2.171  -5.985  1.00  0.00     0.120 HD
ENDBRANCH   7  16
ENDBRANCH   4   7
BRANCH   3  19
ATOM     19  N   UNL     1      14.069   3.489  -7.115  1.00  0.00    -0.337 N 
ATOM     20  C   UNL     1      14.348   4.604  -8.018  1.00  0.00     0.141 C 
ATOM     21  C   UNL     1      12.750   3.450  -6.478  1.00  0.00     0.141 C 
ATOM     22  C   UNL     1      13.684   5.907  -7.516  1.00  0.00     0.139 C 
ATOM     23  C   UNL     1      11.742   4.382  -7.186  1.00  0.00     0.139 C 
ATOM     24  N   UNL     1      12.232   5.772  -7.295  1.00  0.00    -0.351 N 
ATOM     25  C   UNL     1      11.335   6.801  -7.569  1.00  0.00     0.156 C 
ATOM     26  N   UNL     1      10.131   6.483  -7.961  1.00  0.00    -0.215 NA
ATOM     27  C   UNL     1      11.617   8.207  -7.448  1.00  0.00     0.108 A 
ATOM     28  C   UNL     1       9.225   7.462  -8.274  1.00  0.00     0.247 C 
ATOM     29  N   UNL     1      10.632   9.087  -7.799  1.00  0.00    -0.235 N 
ATOM     30  C   UNL     1      12.691   8.947  -6.988  1.00  0.00     0.042 A 
ATOM     31  N   UNL     1       9.410   8.744  -8.227  1.00  0.00    -0.156 NA
ATOM     32  C   UNL     1      11.076  10.371  -7.633  1.00  0.00     0.122 A 
ATOM     33  C   UNL     1      12.353  10.319  -7.122  1.00  0.00     0.005 A 
BRANCH  33  34
ATOM     34  C   UNL     1      13.215  11.436  -6.764  1.00  0.00     0.021 A 
ATOM     35  C   UNL     1      13.100  12.764  -7.105  1.00  0.00     0.117 A 
ATOM     36  C   UNL     1      14.376  11.372  -5.968  1.00  0.00     0.143 A 
ATOM     37  N   UNL     1      14.160  13.394  -6.518  1.00  0.00    -0.275 N 
ATOM     38  N   UNL     1      14.955  12.567  -5.814  1.00  0.00    -0.181 NA
ATOM     39  C   UNL     1      14.481  14.798  -6.585  1.00  0.00     0.173 C 
ENDBRANCH  33  34
ENDBRANCH   3  19
TORSDOF 5
BEGIN_RES MET A 624
REMARK  4 active torsions:
REMARK  status: ('A' for Active; 'I' for Inactive)
REMARK    1  A    between atoms: CA   and  CB  
REMARK    2  A    between atoms: CB   and  CG  
REMARK    3  A    between atoms: CG   and  SD  
REMARK    4  A    between atoms: SD   and  CE  
ROOT
ATOM      1  CA  MET A 624      14.156  -1.311 -16.529  1.00 37.55     0.090 C 
ENDROOT
BRANCH   1   2
ATOM      2  CB  MET A 624      14.290  -0.416 -17.759  1.00 35.24    -0.030 C 
ATOM      3  HB2 MET A 624      14.979  -0.865 -18.513  1.00  0.00     0.037 H 
ATOM      4  HB1 MET A 624      13.351  -0.411 -18.359  1.00  0.00     0.037 H 
BRANCH   2   5
ATOM      5  CG  MET A 624      14.718   0.996 -17.392  1.00 41.56    -0.021 C 
ATOM      6  HG2 MET A 624      15.768   1.175 -17.724  1.00  0.00     0.049 H 
ATOM      7  HG1 MET A 624      14.842   1.082 -16.288  1.00  0.00     0.049 H 
BRANCH   5   8
ATOM      8  SD  MET A 624      13.649   2.311 -17.997  1.00 46.36    -0.173 SA
BRANCH   8   9
ATOM      9  CE  MET A 624      14.469   2.762 -19.523  1.00 43.21    -0.035 C 
ATOM     10  HE3 MET A 624      15.194   2.010 -19.914  1.00  0.00     0.041 H 
ATOM     11  HE1 MET A 624      14.908   3.752 -19.255  1.00  0.00     0.041 H 
ATOM     12  HE2 MET A 624      13.821   2.759 -20.431  1.00  0.00     0.041 H 
ENDBRANCH   8   9
ENDBRANCH   5   8
ENDBRANCH   2   5
ENDBRANCH   1   2
END_RES MET A 624
BEGIN_RES LEU A 625
REMARK  4 active torsions:
REMARK  status: ('A' for Active; 'I' for Inactive)
REMARK    5  A    between atoms: CA   and  CB  
REMARK    6  A    between atoms: CB   and  CG  
REMARK    7  A    between atoms: CG   and  CD1 
REMARK    8  A    between atoms: CG   and  CD2 
ROOT
ATOM     13  CA  LEU A 625      17.135  -3.624 -16.776  1.00 49.20     0.089 C 
ENDROOT
BRANCH  13  14
ATOM     14  CB  LEU A 625      17.051  -5.150 -16.753  1.00 47.95    -0.035 C 
ATOM     15  HB2 LEU A 625      16.554  -5.507 -17.685  1.00  0.00     0.037 H 
ATOM     16  HB1 LEU A 625      18.072  -5.578 -16.885  1.00  0.00     0.037 H 
BRANCH  14  17
ATOM     17  CG  LEU A 625      16.384  -5.798 -15.544  1.00 41.83    -0.059 C 
ATOM     18  HG  LEU A 625      15.648  -5.080 -15.111  1.00  0.00     0.038 H 
BRANCH  17  19
ATOM     19  CD1 LEU A 625      15.647  -7.041 -15.993  1.00 45.22    -0.073 C 
ATOM     20 3HD1 LEU A 625      14.800  -7.300 -15.315  1.00  0.00     0.028 H 
ATOM     21 2HD1 LEU A 625      15.056  -6.870 -16.923  1.00  0.00     0.028 H 
ATOM     22 1HD1 LEU A 625      16.376  -7.878 -16.102  1.00  0.00     0.028 H 
ENDBRANCH  17  19
BRANCH  17  23
ATOM     23  CD2 LEU A 625      17.422  -6.132 -14.489  1.00 48.58    -0.073 C 
ATOM     24 1HD2 LEU A 625      17.684  -5.220 -13.905  1.00  0.00     0.028 H 
ATOM     25 3HD2 LEU A 625      17.091  -6.969 -13.830  1.00  0.00     0.028 H 
ATOM     26 2HD2 LEU A 625      18.323  -6.618 -14.930  1.00  0.00     0.028 H 
ENDBRANCH  17  23
ENDBRANCH  14  17
ENDBRANCH  13  14
END_RES LEU A 625
BEGIN_RES CYS A 673
REMARK  1 active torsions:
REMARK  status: ('A' for Active; 'I' for Inactive)
REMARK    9  A    between atoms: CA   and  CB  
ROOT
ATOM     27  CA  CYS A 673       6.053  10.339  -6.366  1.00 37.53     0.098 C 
ENDROOT
BRANCH  27  28
ATOM     28  CB  CYS A 673       6.430   9.481  -5.160  1.00 34.59     0.013 C 
ATOM     29  SG  CYS A 673       5.025   8.518  -4.530  1.00 37.22    -0.095 SA
ATOM     30  HB1 CYS A 673       7.298   8.821  -5.392  1.00  0.00     0.053 H 
ATOM     31  HB2 CYS A 673       6.887  10.100  -4.354  1.00  0.00     0.053 H 
ENDBRANCH  27  28
END_RES CYS A 673
ENDMDL
MODEL 3
REMARK VINA RESULT:   -10.907      3.485     11.662
REMARK INTER + INTRA:         -12.669
REMARK INTER:                 -13.141
REMARK INTRA:                   0.472
REMARK UNBOUND:                 1.107
REMARK SMILES Cn1cc(-c2cc3c(N4CCN(c5ncc([C@@](C)(N)c6ccc(F)cc6)cn5)CC4)ncnn3c2)cn1
REMARK SMILES IDX 14 1 28 2 13 3 16 4 15 5 27 6 17 7 18 8 20 9 23 10 22 11
REMARK SMILES IDX 25 12 21 13 26 14 24 15 19 16 12 19 11 20 29 21 10 22 30 23
REMARK SMILES IDX 9 24 8 25 31 26 7 27 32 28 34 29 6 30 33 31 35 32 5 33 4 34
REMARK SMILES IDX 3 35 36 36 2 37 37 38 1 39
REMARK H PARENT 19 17 19 18
ROOT
ATOM      1  N   UNL     1      15.397   3.529  -8.356  1.00  0.00    -0.221 NA
ATOM      2  N   UNL     1      14.714   2.407  -6.411  1.00  0.00    -0.221 NA
ATOM      3  C   UNL     1      15.334   2.420  -7.602  1.00  0.00     0.225 A 
ATOM      4  C   UNL     1      14.140   4.742  -6.682  1.00  0.00     0.013 A 
ATOM      5  C   UNL     1      14.815   4.655  -7.881  1.00  0.00     0.122 A 
ATOM      6  C   UNL     1      14.145   3.555  -5.978  1.00  0.00     0.122 A 
ENDROOT
BRANCH   4   7
ATOM      7  C   UNL     1      13.532   6.029  -6.135  1.00  0.00     0.067 C 
ATOM      8  C   UNL     1      13.339   5.804  -4.615  1.00  0.00     0.038 C 
BRANCH   7   9
ATOM      9  C   UNL     1      12.237   6.434  -6.877  1.00  0.00    -0.024 A 
ATOM     10  C   UNL     1       9.875   7.246  -8.176  1.00  0.00     0.123 A 
ATOM     11  C   UNL     1      10.667   8.194  -7.546  1.00  0.00     0.039 A 
ATOM     12  C   UNL     1      10.235   5.906  -8.172  1.00  0.00     0.039 A 
ATOM     13  C   UNL     1      11.840   7.792  -6.901  1.00  0.00     0.009 A 
ATOM     14  C   UNL     1      11.406   5.500  -7.525  1.00  0.00     0.009 A 
ATOM     15  F   UNL     1       8.750   7.627  -8.794  1.00  0.00    -0.207 F 
ENDBRANCH   7   9
BRANCH   7  16
ATOM     16  N   UNL     1      14.471   7.168  -6.237  1.00  0.00    -0.318 NA
ATOM     17  H   UNL     1      14.923   7.298  -5.331  1.00  0.00     0.120 HD
ATOM     18  H   UNL     1      13.943   8.024  -6.400  1.00  0.00     0.120 HD
ENDBRANCH   7  16
ENDBRANCH   4   7
BRANCH   3  19
ATOM     19  N   UNL     1      15.905   1.256  -8.076  1.00  0.00    -0.337 N 
ATOM     20  C   UNL     1      15.199  -0.004  -7.851  1.00  0.00     0.141 C 
ATOM     21  C   UNL     1      16.807   1.328  -9.229  1.00  0.00     0.141 C 
ATOM     22  C   UNL     1      16.086  -1.214  -8.227  1.00  0.00     0.139 C 
ATOM     23  C   UNL     1      16.546   0.186 -10.236  1.00  0.00     0.139 C 
ATOM     24  N   UNL     1      16.603  -1.150  -9.608  1.00  0.00    -0.351 N 
ATOM     25  C   UNL     1      16.748  -2.282 -10.405  1.00  0.00     0.156 C 
ATOM     26  N   UNL     1      16.588  -2.155 -11.694  1.00  0.00    -0.215 NA
ATOM     27  C   UNL     1      17.075  -3.601  -9.929  1.00  0.00     0.108 A 
ATOM     28  C   UNL     1      16.689  -3.248 -12.514  1.00  0.00     0.247 C 
ATOM     29  N   UNL     1      17.138  -4.612 -10.846  1.00  0.00    -0.235 N 
ATOM     30  C   UNL     1      17.413  -4.133  -8.698  1.00  0.00     0.042 A 
ATOM     31  N   UNL     1      16.943  -4.469 -12.164  1.00  0.00    -0.156 NA
ATOM     32  C   UNL     1      17.448  -5.789 -10.220  1.00  0.00     0.122 A 
ATOM     33  C   UNL     1      17.632  -5.525  -8.882  1.00  0.00     0.005 A 
BRANCH  33  34
ATOM     34  C   UNL     1      17.995  -6.463  -7.830  1.00  0.00     0.021 A 
ATOM     35  C   UNL     1      18.949  -6.337  -6.847  1.00  0.00     0.117 A 
ATOM     36  C   UNL     1      17.419  -7.729  -7.606  1.00  0.00     0.143 A 
ATOM     37  N   UNL     1      18.892  -7.491  -6.119  1.00  0.00    -0.275 N 
ATOM     38  N   UNL     1      17.964  -8.360  -6.560  1.00  0.00    -0.181 NA
ATOM     39  C   UNL     1      19.702  -7.839  -4.978  1.00  0.00     0.173 C 
ENDBRANCH  33  34
ENDBRANCH   3  19
TORSDOF 5
BEGIN_RES MET A 624
REMARK  4 active torsions:
REMARK  status: ('A' for Active; 'I' for Inactive)
REMARK    1  A    between atoms: CA   and  CB  
REMARK    2  A    between atoms: CB   and  CG  
REMARK    3  A    between atoms: CG   and  SD  
REMARK    4  A    between atoms: SD   and  CE  
ROOT
ATOM      1  CA  MET A 624      14.156  -1.311 -16.529  1.00 37.55     0.090 C 
ENDROOT
BRANCH   1   2
ATOM      2  CB  MET A 624      14.290  -0.416 -17.759  1.00 35.24    -0.030 C 
ATOM      3  HB2 MET A 624      15.013  -0.843 -18.493  1.00  0.00     0.037 H 
ATOM      4  HB1 MET A 624      13.367  -0.446 -18.383  1.00  0.00     0.037 H 
BRANCH   2   5
ATOM      5  CG  MET A 624      14.659   1.011 -17.388  1.00 41.56    -0.021 C 
ATOM      6  HG2 MET A 624      15.705   1.230 -17.706  1.00  0.00     0.049 H 
ATOM      7  HG1 MET A 624      14.766   1.102 -16.282  1.00  0.00     0.049 H 
BRANCH   5   8
ATOM      8  SD  MET A 624      13.549   2.285 -18.006  1.00 46.36    -0.173 SA
BRANCH   8   9
ATOM      9  CE  MET A 624      14.617   3.169 -19.138  1.00 43.21    -0.035 C 
ATOM     10  HE3 MET A 624      14.233   3.261 -20.181  1.00  0.00     0.041 H 
ATOM     11  HE1 MET A 624      15.572   2.602 -19.031  1.00  0.00     0.041 H 
ATOM     12  HE2 MET A 624      14.694   4.267 -18.961  1.00  0.00     0.041 H 
ENDBRANCH   8   9
ENDBRANCH   5   8
ENDBRANCH   2   5
ENDBRANCH   1   2
END_RES MET A 624
BEGIN_RES LEU A 625
REMARK  4 active torsions:
REMARK  status: ('A' for Active; 'I' for Inactive)
REMARK    5  A    between atoms: CA   and  CB  
REMARK    6  A    between atoms: CB   and  CG  
REMARK    7  A    between atoms: CG   and  CD1 
REMARK    8  A    between atoms: CG   and  CD2 
ROOT
ATOM     13  CA  LEU A 625      17.135  -3.624 -16.776  1.00 49.20     0.089 C 
ENDROOT
BRANCH  13  14
ATOM     14  CB  LEU A 625      17.051  -5.150 -16.753  1.00 47.95    -0.035 C 
ATOM     15  HB2 LEU A 625      16.419  -5.498 -17.603  1.00  0.00     0.037 H 
ATOM     16  HB1 LEU A 625      18.040  -5.578 -17.039  1.00  0.00     0.037 H 
BRANCH  14  17
ATOM     17  CG  LEU A 625      16.570  -5.807 -15.464  1.00 41.83    -0.059 C 
ATOM     18  HG  LEU A 625      16.024  -5.049 -14.855  1.00  0.00     0.038 H 
BRANCH  17  19
ATOM     19  CD1 LEU A 625      15.620  -6.933 -15.807  1.00 45.22    -0.073 C 
ATOM     20 3HD1 LEU A 625      16.109  -7.934 -15.744  1.00  0.00     0.028 H 
ATOM     21 2HD1 LEU A 625      14.844  -7.088 -15.021  1.00  0.00     0.028 H 
ATOM     22 1HD1 LEU A 625      15.174  -6.741 -16.811  1.00  0.00     0.028 H 
ENDBRANCH  17  19
BRANCH  17  23
ATOM     23  CD2 LEU A 625      17.753  -6.318 -14.663  1.00 48.58    -0.073 C 
ATOM     24 1HD2 LEU A 625      18.632  -5.646 -14.803  1.00  0.00     0.028 H 
ATOM     25 3HD2 LEU A 625      17.499  -6.452 -13.585  1.00  0.00     0.028 H 
ATOM     26 2HD2 LEU A 625      17.995  -7.378 -14.907  1.00  0.00     0.028 H 
ENDBRANCH  17  23
ENDBRANCH  14  17
ENDBRANCH  13  14
END_RES LEU A 625
BEGIN_RES CYS A 673
REMARK  1 active torsions:
REMARK  status: ('A' for Active; 'I' for Inactive)
REMARK    9  A    between atoms: CA   and  CB  
ROOT
ATOM     27  CA  CYS A 673       6.053  10.339  -6.366  1.00 37.53     0.098 C 
ENDROOT
BRANCH  27  28
ATOM     28  CB  CYS A 673       6.430   9.481  -5.160  1.00 34.59     0.013 C 
ATOM     29  SG  CYS A 673       5.023   8.523  -4.526  1.00 37.22    -0.095 SA
ATOM     30  HB1 CYS A 673       7.296   8.818  -5.393  1.00  0.00     0.053 H 
ATOM     31  HB2 CYS A 673       6.891  10.099  -4.355  1.00  0.00     0.053 H 
ENDBRANCH  27  28
END_RES CYS A 673
ENDMDL
MODEL 4
REMARK VINA RESULT:   -10.471      3.026      5.828
REMARK INTER + INTRA:         -12.119
REMARK INTER:                 -13.214
REMARK INTRA:                   1.095
REMARK UNBOUND:                 1.107
REMARK SMILES Cn1cc(-c2cc3c(N4CCN(c5ncc([C@@](C)(N)c6ccc(F)cc6)cn5)CC4)ncnn3c2)cn1
REMARK SMILES IDX 14 1 28 2 13 3 16 4 15 5 27 6 17 7 18 8 20 9 23 10 22 11
REMARK SMILES IDX 25 12 21 13 26 14 24 15 19 16 12 19 11 20 29 21 10 22 30 23
REMARK SMILES IDX 9 24 8 25 31 26 7 27 32 28 34 29 6 30 33 31 35 32 5 33 4 34
REMARK SMILES IDX 3 35 36 36 2 37 37 38 1 39
REMARK H PARENT 19 17 19 18
ROOT
ATOM      1  N   UNL     1      16.073  -0.587 -11.337  1.00  0.00    -0.221 NA
ATOM      2  N   UNL     1      17.004  -1.831  -9.580  1.00  0.00    -0.221 NA
ATOM      3  C   UNL     1      16.605  -0.664 -10.107  1.00  0.00     0.225 A 
ATOM      4  C   UNL     1      16.336  -2.978 -11.602  1.00  0.00     0.013 A 
ATOM      5  C   UNL     1      15.942  -1.733 -12.046  1.00  0.00     0.122 A 
ATOM      6  C   UNL     1      16.857  -2.950 -10.325  1.00  0.00     0.122 A 
ENDROOT
BRANCH   4   7
ATOM      7  C   UNL     1      16.137  -4.268 -12.391  1.00  0.00     0.067 C 
ATOM      8  C   UNL     1      15.004  -3.983 -13.407  1.00  0.00     0.038 C 
BRANCH   7   9
ATOM      9  C   UNL     1      15.864  -5.485 -11.477  1.00  0.00    -0.024 A 
ATOM     10  C   UNL     1      15.295  -7.658  -9.780  1.00  0.00     0.123 A 
ATOM     11  C   UNL     1      14.272  -6.802 -10.158  1.00  0.00     0.039 A 
ATOM     12  C   UNL     1      16.592  -7.455 -10.228  1.00  0.00     0.039 A 
ATOM     13  C   UNL     1      14.554  -5.723 -11.000  1.00  0.00     0.009 A 
ATOM     14  C   UNL     1      16.877  -6.374 -11.068  1.00  0.00     0.009 A 
ATOM     15  F   UNL     1      15.029  -8.692  -8.971  1.00  0.00    -0.207 F 
ENDBRANCH   7   9
BRANCH   7  16
ATOM     16  N   UNL     1      17.318  -4.596 -13.217  1.00  0.00    -0.318 NA
ATOM     17  H   UNL     1      17.279  -4.042 -14.075  1.00  0.00     0.120 HD
ATOM     18  H   UNL     1      17.257  -5.566 -13.521  1.00  0.00     0.120 HD
ENDBRANCH   7  16
ENDBRANCH   4   7
BRANCH   3  19
ATOM     19  N   UNL     1      16.765   0.496  -9.375  1.00  0.00    -0.337 N 
ATOM     20  C   UNL     1      15.823   0.767  -8.291  1.00  0.00     0.141 C 
ATOM     21  C   UNL     1      18.102   1.089  -9.273  1.00  0.00     0.141 C 
ATOM     22  C   UNL     1      16.002   2.203  -7.744  1.00  0.00     0.139 C 
ATOM     23  C   UNL     1      18.409   1.569  -7.837  1.00  0.00     0.139 C 
ATOM     24  N   UNL     1      17.382   2.495  -7.315  1.00  0.00    -0.351 N 
ATOM     25  C   UNL     1      17.669   3.291  -6.209  1.00  0.00     0.156 C 
ATOM     26  N   UNL     1      18.745   3.027  -5.519  1.00  0.00    -0.215 NA
ATOM     27  C   UNL     1      16.878   4.406  -5.758  1.00  0.00     0.108 A 
ATOM     28  C   UNL     1      19.049   3.763  -4.404  1.00  0.00     0.247 C 
ATOM     29  N   UNL     1      17.282   5.057  -4.626  1.00  0.00    -0.235 N 
ATOM     30  C   UNL     1      15.761   5.063  -6.239  1.00  0.00     0.042 A 
ATOM     31  N   UNL     1      18.375   4.754  -3.913  1.00  0.00    -0.156 NA
ATOM     32  C   UNL     1      16.413   6.075  -4.340  1.00  0.00     0.122 A 
ATOM     33  C   UNL     1      15.457   6.110  -5.329  1.00  0.00     0.005 A 
BRANCH  33  34
ATOM     34  C   UNL     1      14.342   7.037  -5.458  1.00  0.00     0.021 A 
ATOM     35  C   UNL     1      13.302   7.023  -6.358  1.00  0.00     0.117 A 
ATOM     36  C   UNL     1      14.102   8.170  -4.654  1.00  0.00     0.143 A 
ATOM     37  N   UNL     1      12.529   8.107  -6.055  1.00  0.00    -0.275 N 
ATOM     38  N   UNL     1      12.994   8.826  -5.016  1.00  0.00    -0.181 NA
ATOM     39  C   UNL     1      11.320   8.526  -6.721  1.00  0.00     0.173 C 
ENDBRANCH  33  34
ENDBRANCH   3  19
TORSDOF 5
BEGIN_RES MET A 624
REMARK  4 active torsions:
REMARK  status: ('A' for Active; 'I' for Inactive)
REMARK    1  A    between atoms: CA   and  CB  
REMARK    2  A    between atoms: CB   and  CG  
REMARK    3  A    between atoms: CG   and  SD  
REMARK    4  A    between atoms: SD   and  CE  
ROOT
ATOM      1  CA  MET A 624      14.156  -1.311 -16.529  1.00 37.55     0.090 C 
ENDROOT
BRANCH   1   2
ATOM      2  CB  MET A 624      14.290  -0.416 -17.759  1.00 35.24    -0.030 C 
ATOM      3  HB2 MET A 624      15.007  -0.847 -18.497  1.00  0.00     0.037 H 
ATOM      4  HB1 MET A 624      13.364  -0.439 -18.379  1.00  0.00     0.037 H 
BRANCH   2   5
ATOM      5  CG  MET A 624      14.670   1.009 -17.388  1.00 41.56    -0.021 C 
ATOM      6  HG2 MET A 624      15.718   1.219 -17.706  1.00  0.00     0.049 H 
ATOM      7  HG1 MET A 624      14.777   1.099 -16.283  1.00  0.00     0.049 H 
BRANCH   5   8
ATOM      8  SD  MET A 624      13.570   2.290 -18.008  1.00 46.36    -0.173 SA
BRANCH   8   9
ATOM      9  CE  MET A 624      14.648   3.170 -19.134  1.00 43.21    -0.035 C 
ATOM     10  HE3 MET A 624      15.678   3.364 -18.753  1.00  0.00     0.041 H 
ATOM     11  HE1 MET A 624      14.042   4.081 -19.354  1.00  0.00     0.041 H 
ATOM     12  HE2 MET A 624      14.978   2.591 -20.028  1.00  0.00     0.041 H 
ENDBRANCH   8   9
ENDBRANCH   5   8
ENDBRANCH   2   5
ENDBRANCH   1   2
END_RES MET A 624
BEGIN_RES LEU A 625
REMARK  4 active torsions:
REMARK  status: ('A' for Active; 'I' for Inactive)
REMARK    5  A    between atoms: CA   and  CB  
REMARK    6  A    between atoms: CB   and  CG  
REMARK    7  A    between atoms: CG   and  CD1 
REMARK    8  A    between atoms: CG   and  CD2 
ROOT
ATOM     13  CA  LEU A 625      17.135  -3.624 -16.776  1.00 49.20     0.089 C 
ENDROOT
BRANCH  13  14
ATOM     14  CB  LEU A 625      17.051  -5.150 -16.753  1.00 47.95    -0.035 C 
ATOM     15  HB2 LEU A 625      17.777  -5.571 -17.487  1.00  0.00     0.037 H 
ATOM     16  HB1 LEU A 625      17.480  -5.529 -15.796  1.00  0.00     0.037 H 
BRANCH  14  17
ATOM     17  CG  LEU A 625      15.681  -5.781 -16.977  1.00 41.83    -0.059 C 
ATOM     18  HG  LEU A 625      14.894  -5.030 -16.730  1.00  0.00     0.038 H 
BRANCH  17  19
ATOM     19  CD1 LEU A 625      15.547  -6.168 -18.433  1.00 45.22    -0.073 C 
ATOM     20 3HD1 LEU A 625      15.547  -5.281 -19.110  1.00  0.00     0.028 H 
ATOM     21 2HD1 LEU A 625      16.465  -6.665 -18.826  1.00  0.00     0.028 H 
ATOM     22 1HD1 LEU A 625      14.636  -6.799 -18.561  1.00  0.00     0.028 H 
ENDBRANCH  17  19
BRANCH  17  23
ATOM     23  CD2 LEU A 625      15.506  -6.988 -16.075  1.00 48.58    -0.073 C 
ATOM     24 1HD2 LEU A 625      14.988  -6.693 -15.132  1.00  0.00     0.028 H 
ATOM     25 3HD2 LEU A 625      14.981  -7.824 -16.594  1.00  0.00     0.028 H 
ATOM     26 2HD2 LEU A 625      16.474  -7.502 -15.874  1.00  0.00     0.028 H 
ENDBRANCH  17  23
ENDBRANCH  14  17
ENDBRANCH  13  14
END_RES LEU A 625
BEGIN_RES CYS A 673
REMARK  1 active torsions:
REMARK  status: ('A' for Active; 'I' for Inactive)
REMARK    9  A    between atoms: CA   and  CB  
ROOT
ATOM     27  CA  CYS A 673       6.053  10.339  -6.366  1.00 37.53     0.098 C 
ENDROOT
BRANCH  27  28
ATOM     28  CB  CYS A 673       6.430   9.481  -5.160  1.00 34.59     0.013 C 
ATOM     29  SG  CYS A 673       5.024   8.522  -4.527  1.00 37.22    -0.095 SA
ATOM     30  HB1 CYS A 673       7.296   8.819  -5.393  1.00  0.00     0.053 H 
ATOM     31  HB2 CYS A 673       6.890  10.099  -4.355  1.00  0.00     0.053 H 
ENDBRANCH  27  28
END_RES CYS A 673
ENDMDL
MODEL 5
REMARK VINA RESULT:    -9.976      2.371      3.233
REMARK INTER + INTRA:         -11.494
REMARK INTER:                 -11.843
REMARK INTRA:                   0.349
REMARK UNBOUND:                 1.107
REMARK SMILES Cn1cc(-c2cc3c(N4CCN(c5ncc([C@@](C)(N)c6ccc(F)cc6)cn5)CC4)ncnn3c2)cn1
REMARK SMILES IDX 14 1 28 2 13 3 16 4 15 5 27 6 17 7 18 8 20 9 23 10 22 11
REMARK SMILES IDX 25 12 21 13 26 14 24 15 19 16 12 19 11 20 29 21 10 22 30 23
REMARK SMILES IDX 9 24 8 25 31 26 7 27 32 28 34 29 6 30 33 31 35 32 5 33 4 34
REMARK SMILES IDX 3 35 36 36 2 37 37 38 1 39
REMARK H PARENT 19 17 19 18
ROOT
ATOM      1  N   UNL     1      14.921   0.514  -7.793  1.00  0.00    -0.221 NA
ATOM      2  N   UNL     1      16.396   1.594  -6.321  1.00  0.00    -0.221 NA
ATOM      3  C   UNL     1      15.237   1.548  -6.997  1.00  0.00     0.225 A 
ATOM      4  C   UNL     1      17.033  -0.541  -7.263  1.00  0.00     0.013 A 
ATOM      5  C   UNL     1      15.811  -0.500  -7.901  1.00  0.00     0.122 A 
ATOM      6  C   UNL     1      17.255   0.559  -6.461  1.00  0.00     0.122 A 
ENDROOT
BRANCH   4   7
ATOM      7  C   UNL     1      18.004  -1.714  -7.353  1.00  0.00     0.067 C 
ATOM      8  C   UNL     1      17.545  -2.563  -8.563  1.00  0.00     0.038 C 
BRANCH   7   9
ATOM      9  C   UNL     1      18.097  -2.509  -6.030  1.00  0.00    -0.024 A 
ATOM     10  C   UNL     1      18.175  -3.961  -3.619  1.00  0.00     0.123 A 
ATOM     11  C   UNL     1      17.063  -4.064  -4.442  1.00  0.00     0.039 A 
ATOM     12  C   UNL     1      19.245  -3.152  -3.972  1.00  0.00     0.039 A 
ATOM     13  C   UNL     1      17.024  -3.344  -5.638  1.00  0.00     0.009 A 
ATOM     14  C   UNL     1      19.207  -2.428  -5.167  1.00  0.00     0.009 A 
ATOM     15  F   UNL     1      18.215  -4.648  -2.471  1.00  0.00    -0.207 F 
ENDBRANCH   7   9
BRANCH   7  16
ATOM     16  N   UNL     1      19.373  -1.270  -7.695  1.00  0.00    -0.318 NA
ATOM     17  H   UNL     1      19.677  -1.769  -8.532  1.00  0.00     0.120 HD
ATOM     18  H   UNL     1      20.014  -1.563  -6.959  1.00  0.00     0.120 HD
ENDBRANCH   7  16
ENDBRANCH   4   7
BRANCH   3  19
ATOM     19  N   UNL     1      14.353   2.602  -6.888  1.00  0.00    -0.337 N 
ATOM     20  C   UNL     1      14.400   3.655  -7.901  1.00  0.00     0.141 C 
ATOM     21  C   UNL     1      13.079   2.389  -6.195  1.00  0.00     0.141 C 
ATOM     22  C   UNL     1      13.520   4.860  -7.493  1.00  0.00     0.139 C 
ATOM     23  C   UNL     1      11.900   3.050  -6.943  1.00  0.00     0.139 C 
ATOM     24  N   UNL     1      12.123   4.487  -7.200  1.00  0.00    -0.351 N 
ATOM     25  C   UNL     1      11.046   5.305  -7.531  1.00  0.00     0.156 C 
ATOM     26  N   UNL     1       9.912   4.738  -7.841  1.00  0.00    -0.215 NA
ATOM     27  C   UNL     1      11.068   6.745  -7.552  1.00  0.00     0.108 A 
ATOM     28  C   UNL     1       8.834   5.502  -8.206  1.00  0.00     0.247 C 
ATOM     29  N   UNL     1       9.930   7.393  -7.942  1.00  0.00    -0.235 N 
ATOM     30  C   UNL     1      11.999   7.708  -7.208  1.00  0.00     0.042 A 
ATOM     31  N   UNL     1       8.782   6.794  -8.285  1.00  0.00    -0.156 NA
ATOM     32  C   UNL     1      10.134   8.747  -7.913  1.00  0.00     0.122 A 
ATOM     33  C   UNL     1      11.411   8.977  -7.454  1.00  0.00     0.005 A 
BRANCH  33  34
ATOM     34  C   UNL     1      12.061  10.260  -7.237  1.00  0.00     0.021 A 
ATOM     35  C   UNL     1      13.312  10.523  -6.727  1.00  0.00     0.117 A 
ATOM     36  C   UNL     1      11.518  11.529  -7.519  1.00  0.00     0.143 A 
ATOM     37  N   UNL     1      13.440  11.882  -6.731  1.00  0.00    -0.275 N 
ATOM     38  N   UNL     1      12.359  12.523  -7.212  1.00  0.00    -0.181 NA
ATOM     39  C   UNL     1      14.577  12.649  -6.285  1.00  0.00     0.173 C 
ENDBRANCH  33  34
ENDBRANCH   3  19
TORSDOF 5
BEGIN_RES MET A 624
REMARK  4 active torsions:
REMARK  status: ('A' for Active; 'I' for Inactive)
REMARK    1  A    between atoms: CA   and  CB  
REMARK    2  A    between atoms: CB   and  CG  
REMARK    3  A    between atoms: CG   and  SD  
REMARK    4  A    between atoms: SD   and  CE  
ROOT
ATOM      1  CA  MET A 624      14.156  -1.311 -16.529  1.00 37.55     0.090 C 
ENDROOT
BRANCH   1   2
ATOM      2  CB  MET A 624      14.290  -0.416 -17.759  1.00 35.24    -0.030 C 
ATOM      3  HB2 MET A 624      15.060  -0.810 -18.464  1.00  0.00     0.037 H 
ATOM      4  HB1 MET A 624      13.393  -0.494 -18.416  1.00  0.00     0.037 H 
BRANCH   2   5
ATOM      5  CG  MET A 624      14.574   1.030 -17.384  1.00 41.56    -0.021 C 
ATOM      6  HG2 MET A 624      15.654   1.260 -17.542  1.00  0.00     0.049 H 
ATOM      7  HG1 MET A 624      14.504   1.157 -16.279  1.00  0.00     0.049 H 
BRANCH   5   8
ATOM      8  SD  MET A 624      13.555   2.260 -18.211  1.00 46.36    -0.173 SA
BRANCH   8   9
ATOM      9  CE  MET A 624      14.789   3.199 -19.107  1.00 43.21    -0.035 C 
ATOM     10  HE3 MET A 624      15.385   3.911 -18.490  1.00  0.00     0.041 H 
ATOM     11  HE1 MET A 624      14.172   3.666 -19.910  1.00  0.00     0.041 H 
ATOM     12  HE2 MET A 624      15.668   2.612 -19.463  1.00  0.00     0.041 H 
ENDBRANCH   8   9
ENDBRANCH   5   8
ENDBRANCH   2   5
ENDBRANCH   1   2
END_RES MET A 624
BEGIN_RES LEU A 625
REMARK  4 active torsions:
REMARK  status: ('A' for Active; 'I' for Inactive)
REMARK    5  A    between atoms: CA   and  CB  
REMARK    6  A    between atoms: CB   and  CG  
REMARK    7  A    between atoms: CG   and  CD1 
REMARK    8  A    between atoms: CG   and  CD2 
ROOT
ATOM     13  CA  LEU A 625      17.135  -3.624 -16.776  1.00 49.20     0.089 C 
ENDROOT
BRANCH  13  14
ATOM     14  CB  LEU A 625      17.051  -5.150 -16.753  1.00 47.95    -0.035 C 
ATOM     15  HB2 LEU A 625      16.555  -5.507 -17.686  1.00  0.00     0.037 H 
ATOM     16  HB1 LEU A 625      18.072  -5.578 -16.884  1.00  0.00     0.037 H 
BRANCH  14  17
ATOM     17  CG  LEU A 625      16.382  -5.798 -15.545  1.00 41.83    -0.059 C 
ATOM     18  HG  LEU A 625      15.648  -5.079 -15.111  1.00  0.00     0.038 H 
BRANCH  17  19
ATOM     19  CD1 LEU A 625      15.643  -7.038 -15.996  1.00 45.22    -0.073 C 
ATOM     20 3HD1 LEU A 625      16.096  -7.495 -16.907  1.00  0.00     0.028 H 
ATOM     21 2HD1 LEU A 625      15.791  -7.897 -15.300  1.00  0.00     0.028 H 
ATOM     22 1HD1 LEU A 625      14.565  -6.789 -16.137  1.00  0.00     0.028 H 
ENDBRANCH  17  19
BRANCH  17  23
ATOM     23  CD2 LEU A 625      17.419  -6.136 -14.491  1.00 48.58    -0.073 C 
ATOM     24 1HD2 LEU A 625      17.372  -7.221 -14.237  1.00  0.00     0.028 H 
ATOM     25 3HD2 LEU A 625      18.445  -5.824 -14.800  1.00  0.00     0.028 H 
ATOM     26 2HD2 LEU A 625      17.318  -5.492 -13.586  1.00  0.00     0.028 H 
ENDBRANCH  17  23
ENDBRANCH  14  17
ENDBRANCH  13  14
END_RES LEU A 625
BEGIN_RES CYS A 673
REMARK  1 active torsions:
REMARK  status: ('A' for Active; 'I' for Inactive)
REMARK    9  A    between atoms: CA   and  CB  
ROOT
ATOM     27  CA  CYS A 673       6.053  10.339  -6.366  1.00 37.53     0.098 C 
ENDROOT
BRANCH  27  28
ATOM     28  CB  CYS A 673       6.430   9.481  -5.160  1.00 34.59     0.013 C 
ATOM     29  SG  CYS A 673       5.026   8.513  -4.534  1.00 37.22    -0.095 SA
ATOM     30  HB1 CYS A 673       7.301   8.824  -5.391  1.00  0.00     0.053 H 
ATOM     31  HB2 CYS A 673       6.884  10.100  -4.352  1.00  0.00     0.053 H 
ENDBRANCH  27  28
END_RES CYS A 673
ENDMDL
MODEL 6
REMARK VINA RESULT:    -9.858      3.480     11.544
REMARK INTER + INTRA:         -11.345
REMARK INTER:                 -12.307
REMARK INTRA:                   0.963
REMARK UNBOUND:                 1.107
REMARK SMILES Cn1cc(-c2cc3c(N4CCN(c5ncc([C@@](C)(N)c6ccc(F)cc6)cn5)CC4)ncnn3c2)cn1
REMARK SMILES IDX 14 1 28 2 13 3 16 4 15 5 27 6 17 7 18 8 20 9 23 10 22 11
REMARK SMILES IDX 25 12 21 13 26 14 24 15 19 16 12 19 11 20 29 21 10 22 30 23
REMARK SMILES IDX 9 24 8 25 31 26 7 27 32 28 34 29 6 30 33 31 35 32 5 33 4 34
REMARK SMILES IDX 3 35 36 36 2 37 37 38 1 39
REMARK H PARENT 19 17 19 18
ROOT
ATOM      1  N   UNL     1      15.006   4.036  -7.604  1.00  0.00    -0.221 NA
ATOM      2  N   UNL     1      14.907   3.873  -5.265  1.00  0.00    -0.221 NA
ATOM      3  C   UNL     1      15.245   3.370  -6.463  1.00  0.00     0.225 A 
ATOM      4  C   UNL     1      14.010   5.845  -6.342  1.00  0.00     0.013 A 
ATOM      5  C   UNL     1      14.410   5.249  -7.520  1.00  0.00     0.122 A 
ATOM      6  C   UNL     1      14.312   5.087  -5.230  1.00  0.00     0.122 A 
ENDROOT
BRANCH   4   7
ATOM      7  C   UNL     1      13.386   7.234  -6.257  1.00  0.00     0.067 C 
ATOM      8  C   UNL     1      13.290   7.572  -4.749  1.00  0.00     0.038 C 
BRANCH   7   9
ATOM      9  C   UNL     1      12.036   7.323  -7.005  1.00  0.00    -0.024 A 
ATOM     10  C   UNL     1       9.558   7.560  -8.321  1.00  0.00     0.123 A 
ATOM     11  C   UNL     1      10.139   8.685  -7.753  1.00  0.00     0.039 A 
ATOM     12  C   UNL     1      10.183   6.325  -8.246  1.00  0.00     0.039 A 
ATOM     13  C   UNL     1      11.369   8.567  -7.101  1.00  0.00     0.009 A 
ATOM     14  C   UNL     1      11.413   6.204  -7.591  1.00  0.00     0.009 A 
ATOM     15  F   UNL     1       8.378   7.669  -8.945  1.00  0.00    -0.207 F 
ENDBRANCH   7   9
BRANCH   7  16
ATOM     16  N   UNL     1      14.273   8.272  -6.826  1.00  0.00    -0.318 NA
ATOM     17  H   UNL     1      14.491   8.950  -6.095  1.00  0.00     0.120 HD
ATOM     18  H   UNL     1      13.763   8.796  -7.536  1.00  0.00     0.120 HD
ENDBRANCH   7  16
ENDBRANCH   4   7
BRANCH   3  19
ATOM     19  N   UNL     1      15.834   2.123  -6.528  1.00  0.00    -0.337 N 
ATOM     20  C   UNL     1      15.953   1.479  -7.834  1.00  0.00     0.141 C 
ATOM     21  C   UNL     1      16.805   1.746  -5.497  1.00  0.00     0.141 C 
ATOM     22  C   UNL     1      16.408   0.007  -7.690  1.00  0.00     0.139 C 
ATOM     23  C   UNL     1      18.033   1.027  -6.100  1.00  0.00     0.139 C 
ATOM     24  N   UNL     1      17.659  -0.142  -6.924  1.00  0.00    -0.351 N 
ATOM     25  C   UNL     1      18.621  -1.098  -7.241  1.00  0.00     0.156 C 
ATOM     26  N   UNL     1      19.874  -0.816  -7.008  1.00  0.00    -0.215 NA
ATOM     27  C   UNL     1      18.351  -2.397  -7.802  1.00  0.00     0.108 A 
ATOM     28  C   UNL     1      20.856  -1.714  -7.334  1.00  0.00     0.247 C 
ATOM     29  N   UNL     1      19.419  -3.199  -8.092  1.00  0.00    -0.235 N 
ATOM     30  C   UNL     1      17.203  -3.108  -8.098  1.00  0.00     0.042 A 
ATOM     31  N   UNL     1      20.702  -2.882  -7.873  1.00  0.00    -0.156 NA
ATOM     32  C   UNL     1      18.980  -4.381  -8.625  1.00  0.00     0.122 A 
ATOM     33  C   UNL     1      17.604  -4.359  -8.636  1.00  0.00     0.005 A 
BRANCH  33  34
ATOM     34  C   UNL     1      16.701  -5.405  -9.092  1.00  0.00     0.021 A 
ATOM     35  C   UNL     1      15.412  -5.674  -8.691  1.00  0.00     0.117 A 
ATOM     36  C   UNL     1      16.980  -6.381 -10.070  1.00  0.00     0.143 A 
ATOM     37  N   UNL     1      15.010  -6.755  -9.422  1.00  0.00    -0.275 N 
ATOM     38  N   UNL     1      15.947  -7.207 -10.276  1.00  0.00    -0.181 NA
ATOM     39  C   UNL     1      13.731  -7.418  -9.360  1.00  0.00     0.173 C 
ENDBRANCH  33  34
ENDBRANCH   3  19
TORSDOF 5
BEGIN_RES MET A 624
REMARK  4 active torsions:
REMARK  status: ('A' for Active; 'I' for Inactive)
REMARK    1  A    between atoms: CA   and  CB  
REMARK    2  A    between atoms: CB   and  CG  
REMARK    3  A    between atoms: CG   and  SD  
REMARK    4  A    between atoms: SD   and  CE  
ROOT
ATOM      1  CA  MET A 624      14.156  -1.311 -16.529  1.00 37.55     0.090 C 
ENDROOT
BRANCH   1   2
ATOM      2  CB  MET A 624      14.290  -0.416 -17.759  1.00 35.24    -0.030 C 
ATOM      3  HB2 MET A 624      14.784  -0.956 -18.600  1.00  0.00     0.037 H 
ATOM      4  HB1 MET A 624      13.298  -0.226 -18.230  1.00  0.00     0.037 H 
BRANCH   2   5
ATOM      5  CG  MET A 624      15.009   0.885 -17.441  1.00 41.56    -0.021 C 
ATOM      6  HG2 MET A 624      16.013   0.671 -17.006  1.00  0.00     0.049 H 
ATOM      7  HG1 MET A 624      14.521   1.388 -16.574  1.00  0.00     0.049 H 
BRANCH   5   8
ATOM      8  SD  MET A 624      15.165   2.039 -18.812  1.00 46.36    -0.173 SA
BRANCH   8   9
ATOM      9  CE  MET A 624      15.174   0.925 -20.215  1.00 43.21    -0.035 C 
ATOM     10  HE3 MET A 624      14.207   0.407 -20.417  1.00  0.00     0.041 H 
ATOM     11  HE1 MET A 624      16.029   0.256 -19.961  1.00  0.00     0.041 H 
ATOM     12  HE2 MET A 624      15.235   1.418 -21.213  1.00  0.00     0.041 H 
ENDBRANCH   8   9
ENDBRANCH   5   8
ENDBRANCH   2   5
ENDBRANCH   1   2
END_RES MET A 624
BEGIN_RES LEU A 625
REMARK  4 active torsions:
REMARK  status: ('A' for Active; 'I' for Inactive)
REMARK    5  A    between atoms: CA   and  CB  
REMARK    6  A    between atoms: CB   and  CG  
REMARK    7  A    between atoms: CG   and  CD1 
REMARK    8  A    between atoms: CG   and  CD2 
ROOT
ATOM     13  CA  LEU A 625      17.135  -3.624 -16.776  1.00 49.20     0.089 C 
ENDROOT
BRANCH  13  14
ATOM     14  CB  LEU A 625      17.051  -5.150 -16.753  1.00 47.95    -0.035 C 
ATOM     15  HB2 LEU A 625      16.555  -5.507 -17.686  1.00  0.00     0.037 H 
ATOM     16  HB1 LEU A 625      18.072  -5.578 -16.884  1.00  0.00     0.037 H 
BRANCH  14  17
ATOM     17  CG  LEU A 625      16.382  -5.798 -15.545  1.00 41.83    -0.059 C 
ATOM     18  HG  LEU A 625      15.647  -5.080 -15.112  1.00  0.00     0.038 H 
BRANCH  17  19
ATOM     19  CD1 LEU A 625      15.644  -7.039 -15.996  1.00 45.22    -0.073 C 
ATOM     20 3HD1 LEU A 625      16.264  -7.961 -15.895  1.00  0.00     0.028 H 
ATOM     21 2HD1 LEU A 625      14.825  -7.324 -15.294  1.00  0.00     0.028 H 
ATOM     22 1HD1 LEU A 625      15.276  -6.887 -17.037  1.00  0.00     0.028 H 
ENDBRANCH  17  19
BRANCH  17  23
ATOM     23  CD2 LEU A 625      17.418  -6.134 -14.490  1.00 48.58    -0.073 C 
ATOM     24 1HD2 LEU A 625      18.067  -6.971 -14.839  1.00  0.00     0.028 H 
ATOM     25 3HD2 LEU A 625      18.016  -5.240 -14.193  1.00  0.00     0.028 H 
ATOM     26 2HD2 LEU A 625      16.951  -6.353 -13.502  1.00  0.00     0.028 H 
ENDBRANCH  17  23
ENDBRANCH  14  17
ENDBRANCH  13  14
END_RES LEU A 625
BEGIN_RES CYS A 673
REMARK  1 active torsions:
REMARK  status: ('A' for Active; 'I' for Inactive)
REMARK    9  A    between atoms: CA   and  CB  
ROOT
ATOM     27  CA  CYS A 673       6.053  10.339  -6.366  1.00 37.53     0.098 C 
ENDROOT
BRANCH  27  28
ATOM     28  CB  CYS A 673       6.430   9.481  -5.160  1.00 34.59     0.013 C 
ATOM     29  SG  CYS A 673       5.026   8.515  -4.533  1.00 37.22    -0.095 SA
ATOM     30  HB1 CYS A 673       7.300   8.823  -5.391  1.00  0.00     0.053 H 
ATOM     31  HB2 CYS A 673       6.885  10.100  -4.353  1.00  0.00     0.053 H 
ENDBRANCH  27  28
END_RES CYS A 673
ENDMDL
MODEL 7
REMARK VINA RESULT:    -9.832      5.291      8.006
REMARK INTER + INTRA:         -11.312
REMARK INTER:                 -11.838
REMARK INTRA:                   0.526
REMARK UNBOUND:                 1.107
REMARK SMILES Cn1cc(-c2cc3c(N4CCN(c5ncc([C@@](C)(N)c6ccc(F)cc6)cn5)CC4)ncnn3c2)cn1
REMARK SMILES IDX 14 1 28 2 13 3 16 4 15 5 27 6 17 7 18 8 20 9 23 10 22 11
REMARK SMILES IDX 25 12 21 13 26 14 24 15 19 16 12 19 11 20 29 21 10 22 30 23
REMARK SMILES IDX 9 24 8 25 31 26 7 27 32 28 34 29 6 30 33 31 35 32 5 33 4 34
REMARK SMILES IDX 3 35 36 36 2 37 37 38 1 39
REMARK H PARENT 19 17 19 18
ROOT
ATOM      1  N   UNL     1      13.136   2.317  -6.836  1.00  0.00    -0.221 NA
ATOM      2  N   UNL     1      12.640   4.607  -6.706  1.00  0.00    -0.221 NA
ATOM      3  C   UNL     1      13.466   3.571  -6.489  1.00  0.00     0.225 A 
ATOM      4  C   UNL     1      11.008   3.107  -7.675  1.00  0.00     0.013 A 
ATOM      5  C   UNL     1      11.933   2.115  -7.424  1.00  0.00     0.122 A 
ATOM      6  C   UNL     1      11.448   4.358  -7.294  1.00  0.00     0.122 A 
ENDROOT
BRANCH   4   7
ATOM      7  C   UNL     1       9.678   2.874  -8.384  1.00  0.00     0.067 C 
ATOM      8  C   UNL     1       8.789   4.095  -8.045  1.00  0.00     0.038 C 
BRANCH   7   9
ATOM      9  C   UNL     1       9.041   1.514  -8.015  1.00  0.00    -0.024 A 
ATOM     10  C   UNL     1       7.888  -0.987  -7.430  1.00  0.00     0.123 A 
ATOM     11  C   UNL     1       8.703  -0.856  -8.545  1.00  0.00     0.039 A 
ATOM     12  C   UNL     1       7.636   0.098  -6.604  1.00  0.00     0.039 A 
ATOM     13  C   UNL     1       9.276   0.385  -8.835  1.00  0.00     0.009 A 
ATOM     14  C   UNL     1       8.205   1.342  -6.894  1.00  0.00     0.009 A 
ATOM     15  F   UNL     1       7.336  -2.175  -7.150  1.00  0.00    -0.207 F 
ENDBRANCH   7   9
BRANCH   7  16
ATOM     16  N   UNL     1       9.825   2.905  -9.855  1.00  0.00    -0.318 NA
ATOM     17  H   UNL     1      10.133   1.984 -10.171  1.00  0.00     0.120 HD
ATOM     18  H   UNL     1      10.582   3.541 -10.103  1.00  0.00     0.120 HD
ENDBRANCH   7  16
ENDBRANCH   4   7
BRANCH   3  19
ATOM     19  N   UNL     1      14.679   3.797  -5.870  1.00  0.00    -0.337 N 
ATOM     20  C   UNL     1      14.696   3.981  -4.420  1.00  0.00     0.141 C 
ATOM     21  C   UNL     1      15.900   3.285  -6.500  1.00  0.00     0.141 C 
ATOM     22  C   UNL     1      16.085   4.458  -3.935  1.00  0.00     0.139 C 
ATOM     23  C   UNL     1      16.858   2.651  -5.467  1.00  0.00     0.139 C 
ATOM     24  N   UNL     1      17.184   3.569  -4.356  1.00  0.00    -0.351 N 
ATOM     25  C   UNL     1      18.286   3.307  -3.546  1.00  0.00     0.156 C 
ATOM     26  N   UNL     1      18.856   2.136  -3.636  1.00  0.00    -0.215 NA
ATOM     27  C   UNL     1      18.871   4.232  -2.609  1.00  0.00     0.108 A 
ATOM     28  C   UNL     1      19.922   1.823  -2.835  1.00  0.00     0.247 C 
ATOM     29  N   UNL     1      19.927   3.797  -1.860  1.00  0.00    -0.235 N 
ATOM     30  C   UNL     1      18.649   5.558  -2.286  1.00  0.00     0.042 A 
ATOM     31  N   UNL     1      20.482   2.581  -1.946  1.00  0.00    -0.156 NA
ATOM     32  C   UNL     1      20.345   4.796  -1.022  1.00  0.00     0.122 A 
ATOM     33  C   UNL     1      19.574   5.909  -1.267  1.00  0.00     0.005 A 
BRANCH  33  34
ATOM     34  C   UNL     1      19.668   7.215  -0.632  1.00  0.00     0.021 A 
ATOM     35  C   UNL     1      20.781   7.994  -0.414  1.00  0.00     0.117 A 
ATOM     36  C   UNL     1      18.599   7.963  -0.099  1.00  0.00     0.143 A 
ATOM     37  N   UNL     1      20.331   9.121   0.214  1.00  0.00    -0.275 N 
ATOM     38  N   UNL     1      19.001   9.130   0.418  1.00  0.00    -0.181 NA
ATOM     39  C   UNL     1      21.122  10.243   0.655  1.00  0.00     0.173 C 
ENDBRANCH  33  34
ENDBRANCH   3  19
TORSDOF 5
BEGIN_RES MET A 624
REMARK  4 active torsions:
REMARK  status: ('A' for Active; 'I' for Inactive)
REMARK    1  A    between atoms: CA   and  CB  
REMARK    2  A    between atoms: CB   and  CG  
REMARK    3  A    between atoms: CG   and  SD  
REMARK    4  A    between atoms: SD   and  CE  
ROOT
ATOM      1  CA  MET A 624      14.156  -1.311 -16.529  1.00 37.55     0.090 C 
ENDROOT
BRANCH   1   2
ATOM      2  CB  MET A 624      14.290  -0.416 -17.759  1.00 35.24    -0.030 C 
ATOM      3  HB2 MET A 624      14.697  -0.983 -18.629  1.00  0.00     0.037 H 
ATOM      4  HB1 MET A 624      13.291  -0.148 -18.174  1.00  0.00     0.037 H 
BRANCH   2   5
ATOM      5  CG  MET A 624      15.120   0.825 -17.473  1.00 41.56    -0.021 C 
ATOM      6  HG2 MET A 624      16.184   0.540 -17.295  1.00  0.00     0.049 H 
ATOM      7  HG1 MET A 624      14.856   1.238 -16.472  1.00  0.00     0.049 H 
BRANCH   5   8
ATOM      8  SD  MET A 624      15.030   2.121 -18.717  1.00 46.36    -0.173 SA
BRANCH   8   9
ATOM      9  CE  MET A 624      13.338   2.678 -18.528  1.00 43.21    -0.035 C 
ATOM     10  HE3 MET A 624      13.097   3.645 -19.027  1.00  0.00     0.041 H 
ATOM     11  HE1 MET A 624      13.227   2.675 -17.418  1.00  0.00     0.041 H 
ATOM     12  HE2 MET A 624      12.576   2.084 -19.084  1.00  0.00     0.041 H 
ENDBRANCH   8   9
ENDBRANCH   5   8
ENDBRANCH   2   5
ENDBRANCH   1   2
END_RES MET A 624
BEGIN_RES LEU A 625
REMARK  4 active torsions:
REMARK  status: ('A' for Active; 'I' for Inactive)
REMARK    5  A    between atoms: CA   and  CB  
REMARK    6  A    between atoms: CB   and  CG  
REMARK    7  A    between atoms: CG   and  CD1 
REMARK    8  A    between atoms: CG   and  CD2 
ROOT
ATOM     13  CA  LEU A 625      17.135  -3.624 -16.776  1.00 49.20     0.089 C 
ENDROOT
BRANCH  13  14
ATOM     14  CB  LEU A 625      17.051  -5.150 -16.753  1.00 47.95    -0.035 C 
ATOM     15  HB2 LEU A 625      16.554  -5.507 -17.685  1.00  0.00     0.037 H 
ATOM     16  HB1 LEU A 625      18.072  -5.578 -16.885  1.00  0.00     0.037 H 
BRANCH  14  17
ATOM     17  CG  LEU A 625      16.383  -5.798 -15.545  1.00 41.83    -0.059 C 
ATOM     18  HG  LEU A 625      15.668  -5.070 -15.095  1.00  0.00     0.038 H 
BRANCH  17  19
ATOM     19  CD1 LEU A 625      15.614  -7.019 -16.000  1.00 45.22    -0.073 C 
ATOM     20 3HD1 LEU A 625      16.230  -7.948 -15.958  1.00  0.00     0.028 H 
ATOM     21 2HD1 LEU A 625      14.826  -7.320 -15.270  1.00  0.00     0.028 H 
ATOM     22 1HD1 LEU A 625      15.200  -6.830 -17.018  1.00  0.00     0.028 H 
ENDBRANCH  17  19
BRANCH  17  23
ATOM     23  CD2 LEU A 625      17.425  -6.167 -14.506  1.00 48.58    -0.073 C 
ATOM     24 1HD2 LEU A 625      16.995  -6.882 -13.765  1.00  0.00     0.028 H 
ATOM     25 3HD2 LEU A 625      18.358  -6.563 -14.972  1.00  0.00     0.028 H 
ATOM     26 2HD2 LEU A 625      17.858  -5.266 -14.012  1.00  0.00     0.028 H 
ENDBRANCH  17  23
ENDBRANCH  14  17
ENDBRANCH  13  14
END_RES LEU A 625
BEGIN_RES CYS A 673
REMARK  1 active torsions:
REMARK  status: ('A' for Active; 'I' for Inactive)
REMARK    9  A    between atoms: CA   and  CB  
ROOT
ATOM     27  CA  CYS A 673       6.053  10.339  -6.366  1.00 37.53     0.098 C 
ENDROOT
BRANCH  27  28
ATOM     28  CB  CYS A 673       6.430   9.481  -5.160  1.00 34.59     0.013 C 
ATOM     29  SG  CYS A 673       5.024   8.522  -4.527  1.00 37.22    -0.095 SA
ATOM     30  HB1 CYS A 673       7.296   8.819  -5.393  1.00  0.00     0.053 H 
ATOM     31  HB2 CYS A 673       6.890  10.099  -4.355  1.00  0.00     0.053 H 
ENDBRANCH  27  28
END_RES CYS A 673
ENDMDL
MODEL 8
REMARK VINA RESULT:    -9.821      2.331      4.413
REMARK INTER + INTRA:         -11.298
REMARK INTER:                 -12.405
REMARK INTRA:                   1.107
REMARK UNBOUND:                 1.107
REMARK SMILES Cn1cc(-c2cc3c(N4CCN(c5ncc([C@@](C)(N)c6ccc(F)cc6)cn5)CC4)ncnn3c2)cn1
REMARK SMILES IDX 14 1 28 2 13 3 16 4 15 5 27 6 17 7 18 8 20 9 23 10 22 11
REMARK SMILES IDX 25 12 21 13 26 14 24 15 19 16 12 19 11 20 29 21 10 22 30 23
REMARK SMILES IDX 9 24 8 25 31 26 7 27 32 28 34 29 6 30 33 31 35 32 5 33 4 34
REMARK SMILES IDX 3 35 36 36 2 37 37 38 1 39
REMARK H PARENT 19 17 19 18
ROOT
ATOM      1  N   UNL     1      15.814  -0.762  -7.585  1.00  0.00    -0.221 NA
ATOM      2  N   UNL     1      17.892  -0.252  -8.549  1.00  0.00    -0.221 NA
ATOM      3  C   UNL     1      16.785   0.115  -7.883  1.00  0.00     0.225 A 
ATOM      4  C   UNL     1      17.066  -2.523  -8.675  1.00  0.00     0.013 A 
ATOM      5  C   UNL     1      15.977  -2.049  -7.974  1.00  0.00     0.122 A 
ATOM      6  C   UNL     1      18.011  -1.547  -8.919  1.00  0.00     0.122 A 
ENDROOT
BRANCH   4   7
ATOM      7  C   UNL     1      17.261  -3.985  -9.063  1.00  0.00     0.067 C 
ATOM      8  C   UNL     1      18.774  -4.275  -8.905  1.00  0.00     0.038 C 
BRANCH   7   9
ATOM      9  C   UNL     1      16.708  -4.303 -10.471  1.00  0.00    -0.024 A 
ATOM     10  C   UNL     1      15.731  -4.803 -13.064  1.00  0.00     0.123 A 
ATOM     11  C   UNL     1      16.771  -3.902 -12.889  1.00  0.00     0.039 A 
ATOM     12  C   UNL     1      15.169  -5.457 -11.978  1.00  0.00     0.039 A 
ATOM     13  C   UNL     1      17.256  -3.654 -11.603  1.00  0.00     0.009 A 
ATOM     14  C   UNL     1      15.651  -5.208 -10.689  1.00  0.00     0.009 A 
ATOM     15  F   UNL     1      15.262  -5.041 -14.295  1.00  0.00    -0.207 F 
ENDBRANCH   7   9
BRANCH   7  16
ATOM     16  N   UNL     1      16.594  -4.900  -8.112  1.00  0.00    -0.318 NA
ATOM     17  H   UNL     1      15.810  -4.408  -7.683  1.00  0.00     0.120 HD
ATOM     18  H   UNL     1      17.232  -5.110  -7.346  1.00  0.00     0.120 HD
ENDBRANCH   7  16
ENDBRANCH   4   7
BRANCH   3  19
ATOM     19  N   UNL     1      16.630   1.436  -7.513  1.00  0.00    -0.337 N 
ATOM     20  C   UNL     1      15.400   1.824  -6.826  1.00  0.00     0.141 C 
ATOM     21  C   UNL     1      17.826   2.247  -7.266  1.00  0.00     0.141 C 
ATOM     22  C   UNL     1      15.290   3.362  -6.706  1.00  0.00     0.139 C 
ATOM     23  C   UNL     1      17.671   3.132  -6.009  1.00  0.00     0.139 C 
ATOM     24  N   UNL     1      16.462   3.979  -6.056  1.00  0.00    -0.351 N 
ATOM     25  C   UNL     1      16.353   5.075  -5.203  1.00  0.00     0.156 C 
ATOM     26  N   UNL     1      17.208   5.182  -4.222  1.00  0.00    -0.215 NA
ATOM     27  C   UNL     1      15.373   6.123  -5.313  1.00  0.00     0.108 A 
ATOM     28  C   UNL     1      17.119   6.225  -3.339  1.00  0.00     0.247 C 
ATOM     29  N   UNL     1      15.381   7.105  -4.363  1.00  0.00    -0.235 N 
ATOM     30  C   UNL     1      14.385   6.437  -6.228  1.00  0.00     0.042 A 
ATOM     31  N   UNL     1      16.249   7.185  -3.346  1.00  0.00    -0.156 NA
ATOM     32  C   UNL     1      14.381   8.005  -4.617  1.00  0.00     0.122 A 
ATOM     33  C   UNL     1      13.745   7.622  -5.776  1.00  0.00     0.005 A 
BRANCH  33  34
ATOM     34  C   UNL     1      12.637   8.286  -6.445  1.00  0.00     0.021 A 
ATOM     35  C   UNL     1      11.475   7.743  -6.944  1.00  0.00     0.117 A 
ATOM     36  C   UNL     1      12.533   9.664  -6.720  1.00  0.00     0.143 A 
ATOM     37  N   UNL     1      10.770   8.788  -7.471  1.00  0.00    -0.275 N 
ATOM     38  N   UNL     1      11.392   9.975  -7.345  1.00  0.00    -0.181 NA
ATOM     39  C   UNL     1       9.482   8.728  -8.116  1.00  0.00     0.173 C 
ENDBRANCH  33  34
ENDBRANCH   3  19
TORSDOF 5
BEGIN_RES MET A 624
REMARK  4 active torsions:
REMARK  status: ('A' for Active; 'I' for Inactive)
REMARK    1  A    between atoms: CA   and  CB  
REMARK    2  A    between atoms: CB   and  CG  
REMARK    3  A    between atoms: CG   and  SD  
REMARK    4  A    between atoms: SD   and  CE  
ROOT
ATOM      1  CA  MET A 624      14.156  -1.311 -16.529  1.00 37.55     0.090 C 
ENDROOT
BRANCH   1   2
ATOM      2  CB  MET A 624      14.290  -0.416 -17.759  1.00 35.24    -0.030 C 
ATOM      3  HB2 MET A 624      15.020  -0.838 -18.489  1.00  0.00     0.037 H 
ATOM      4  HB1 MET A 624      13.370  -0.452 -18.387  1.00  0.00     0.037 H 
BRANCH   2   5
ATOM      5  CG  MET A 624      14.647   1.014 -17.387  1.00 41.56    -0.021 C 
ATOM      6  HG2 MET A 624      15.689   1.244 -17.712  1.00  0.00     0.049 H 
ATOM      7  HG1 MET A 624      14.761   1.103 -16.282  1.00  0.00     0.049 H 
BRANCH   5   8
ATOM      8  SD  MET A 624      13.520   2.278 -17.994  1.00 46.36    -0.173 SA
BRANCH   8   9
ATOM      9  CE  MET A 624      14.573   3.179 -19.127  1.00 43.21    -0.035 C 
ATOM     10  HE3 MET A 624      15.147   4.022 -18.676  1.00  0.00     0.041 H 
ATOM     11  HE1 MET A 624      13.846   3.470 -19.921  1.00  0.00     0.041 H 
ATOM     12  HE2 MET A 624      15.472   2.625 -19.485  1.00  0.00     0.041 H 
ENDBRANCH   8   9
ENDBRANCH   5   8
ENDBRANCH   2   5
ENDBRANCH   1   2
END_RES MET A 624
BEGIN_RES LEU A 625
REMARK  4 active torsions:
REMARK  status: ('A' for Active; 'I' for Inactive)
REMARK    5  A    between atoms: CA   and  CB  
REMARK    6  A    between atoms: CB   and  CG  
REMARK    7  A    between atoms: CG   and  CD1 
REMARK    8  A    between atoms: CG   and  CD2 
ROOT
ATOM     13  CA  LEU A 625      17.135  -3.624 -16.776  1.00 49.20     0.089 C 
ENDROOT
BRANCH  13  14
ATOM     14  CB  LEU A 625      17.051  -5.150 -16.753  1.00 47.95    -0.035 C 
ATOM     15  HB2 LEU A 625      18.039  -5.579 -17.042  1.00  0.00     0.037 H 
ATOM     16  HB1 LEU A 625      16.973  -5.499 -15.697  1.00  0.00     0.037 H 
BRANCH  14  17
ATOM     17  CG  LEU A 625      15.953  -5.806 -17.585  1.00 41.83    -0.059 C 
ATOM     18  HG  LEU A 625      15.153  -5.054 -17.781  1.00  0.00     0.038 H 
BRANCH  17  19
ATOM     19  CD1 LEU A 625      16.535  -6.255 -18.906  1.00 45.22    -0.073 C 
ATOM     20 3HD1 LEU A 625      17.167  -7.169 -18.802  1.00  0.00     0.028 H 
ATOM     21 2HD1 LEU A 625      15.761  -6.677 -19.589  1.00  0.00     0.028 H 
ATOM     22 1HD1 LEU A 625      17.090  -5.406 -19.368  1.00  0.00     0.028 H 
ENDBRANCH  17  19
BRANCH  17  23
ATOM     23  CD2 LEU A 625      15.351  -6.975 -16.828  1.00 48.58    -0.073 C 
ATOM     24 1HD2 LEU A 625      14.594  -6.610 -16.094  1.00  0.00     0.028 H 
ATOM     25 3HD2 LEU A 625      14.926  -7.742 -17.517  1.00  0.00     0.028 H 
ATOM     26 2HD2 LEU A 625      16.132  -7.604 -16.343  1.00  0.00     0.028 H 
ENDBRANCH  17  23
ENDBRANCH  14  17
ENDBRANCH  13  14
END_RES LEU A 625
BEGIN_RES CYS A 673
REMARK  1 active torsions:
REMARK  status: ('A' for Active; 'I' for Inactive)
REMARK    9  A    between atoms: CA   and  CB  
ROOT
ATOM     27  CA  CYS A 673       6.053  10.339  -6.366  1.00 37.53     0.098 C 
ENDROOT
BRANCH  27  28
ATOM     28  CB  CYS A 673       6.430   9.481  -5.160  1.00 34.59     0.013 C 
ATOM     29  SG  CYS A 673       5.023   8.525  -4.525  1.00 37.22    -0.095 SA
ATOM     30  HB1 CYS A 673       7.295   8.817  -5.394  1.00  0.00     0.053 H 
ATOM     31  HB2 CYS A 673       6.892  10.099  -4.356  1.00  0.00     0.053 H 
ENDBRANCH  27  28
END_RES CYS A 673
ENDMDL
