MODEL 1
REMARK VINA RESULT:    -8.312      0.000      0.000
REMARK INTER + INTRA:         -11.423
REMARK INTER:                 -11.672
REMARK INTRA:                   0.249
REMARK UNBOUND:                 0.290
REMARK SMILES CCN(CC)CCNC(=O)c1c(C)[nH]c(/C=C2\C(=O)Nc3ccc(F)cc32)c1C
REMARK SMILES IDX 7 1 8 2 9 3 10 4 11 6 15 7 14 8 28 9 12 10 29 12 13 13 16 14
REMARK SMILES IDX 24 15 26 16 23 17 27 18 22 19 17 20 21 21 18 22 20 23 19 24
REMARK SMILES IDX 25 25 6 27 3 28 2 29 1 30 4 31 5 32
REMARK H PARENT 8 5 14 11 20 26
ROOT
ATOM      1  C   UNL     1      15.576  11.483  -6.937  1.00  0.00     0.131 C 
ENDROOT
BRANCH   1   2
ATOM      2  N   UNL     1      14.741  10.321  -7.178  1.00  0.00    -0.351 N 
ATOM      3  C   UNL     1      13.898   9.813  -6.213  1.00  0.00     0.253 C 
ATOM      4  O   UNL     1      13.800  10.298  -5.092  1.00  0.00    -0.269 OA
ATOM      5  H   UNL     1      14.599  10.015  -8.129  1.00  0.00     0.163 HD
BRANCH   3   6
ATOM      6  C   UNL     1      13.085   8.679  -6.668  1.00  0.00     0.063 A 
ATOM      7  C   UNL     1      12.266   6.591  -7.155  1.00  0.00     0.043 A 
ATOM      8  N   UNL     1      11.393   7.552  -7.596  1.00  0.00    -0.358 N 
ATOM      9  C   UNL     1      13.325   7.261  -6.540  1.00  0.00    -0.013 A 
ATOM     10  C   UNL     1      11.861   8.808  -7.305  1.00  0.00     0.025 A 
ATOM     11  H   UNL     1      10.509   7.372  -8.064  1.00  0.00     0.166 HD
ATOM     12  C   UNL     1      14.479   6.621  -5.842  1.00  0.00     0.047 C 
ATOM     13  C   UNL     1      11.083  10.023  -7.673  1.00  0.00     0.065 C 
BRANCH   7  14
ATOM     14  C   UNL     1      12.021   5.197  -7.333  1.00  0.00     0.041 C 
ATOM     15  C   UNL     1      11.285   0.754  -7.853  1.00  0.00     0.123 A 
ATOM     16  C   UNL     1      11.723   2.061  -7.631  1.00  0.00     0.050 A 
ATOM     17  C   UNL     1       9.980   0.474  -8.286  1.00  0.00     0.041 A 
ATOM     18  C   UNL     1      10.823   3.089  -7.854  1.00  0.00     0.014 A 
ATOM     19  C   UNL     1       9.076   1.512  -8.510  1.00  0.00     0.030 A 
ATOM     20  C   UNL     1      10.908   4.561  -7.735  1.00  0.00     0.051 C 
ATOM     21  C   UNL     1       9.523   2.799  -8.286  1.00  0.00     0.049 A 
ATOM     22  C   UNL     1       9.550   5.087  -8.138  1.00  0.00     0.256 C 
ATOM     23  N   UNL     1       8.794   3.969  -8.447  1.00  0.00    -0.321 N 
ATOM     24  O   UNL     1       9.174   6.242  -8.196  1.00  0.00    -0.269 OA
ATOM     25  F   UNL     1      12.133  -0.262  -7.645  1.00  0.00    -0.207 F 
ATOM     26  H   UNL     1       7.833   4.031  -8.751  1.00  0.00     0.170 HD
ENDBRANCH   7  14
ENDBRANCH   3   6
ENDBRANCH   1   2
BRANCH   1  27
ATOM     27  C   UNL     1      15.047  12.755  -7.631  1.00  0.00     0.105 C 
BRANCH  27  28
ATOM     28  N   UNL     1      14.474  13.724  -6.666  1.00  0.00    -0.302 NA
BRANCH  28  29
ATOM     29  C   UNL     1      15.139  13.605  -5.354  1.00  0.00     0.081 C 
ATOM     30  C   UNL     1      14.154  13.764  -4.200  1.00  0.00     0.021 C 
ENDBRANCH  28  29
BRANCH  28  31
ATOM     31  C   UNL     1      13.018  13.517  -6.538  1.00  0.00     0.081 C 
ATOM     32  C   UNL     1      12.320  13.510  -7.895  1.00  0.00     0.021 C 
ENDBRANCH  28  31
ENDBRANCH  27  28
ENDBRANCH   1  27
TORSDOF 7
BEGIN_RES MET A 624
REMARK  4 active torsions:
REMARK  status: ('A' for Active; 'I' for Inactive)
REMARK    1  A    between atoms: CA   and  CB  
REMARK    2  A    between atoms: CB   and  CG  
REMARK    3  A    between atoms: CG   and  SD  
REMARK    4  A    between atoms: SD   and  CE  
ROOT
ATOM      1  CA  MET A 624      14.156  -1.311 -16.529  1.00 37.55     0.090 C 
ENDROOT
BRANCH   1   2
ATOM      2  CB  MET A 624      14.290  -0.416 -17.759  1.00 35.24    -0.030 C 
ATOM      3  HB2 MET A 624      14.732  -0.973 -18.618  1.00  0.00     0.037 H 
ATOM      4  HB1 MET A 624      13.293  -0.179 -18.197  1.00  0.00     0.037 H 
BRANCH   2   5
ATOM      5  CG  MET A 624      15.077   0.850 -17.460  1.00 41.56    -0.021 C 
ATOM      6  HG2 MET A 624      16.127   0.591 -17.189  1.00  0.00     0.049 H 
ATOM      7  HG1 MET A 624      14.729   1.296 -16.499  1.00  0.00     0.049 H 
BRANCH   5   8
ATOM      8  SD  MET A 624      15.064   2.095 -18.757  1.00 46.36    -0.173 SA
BRANCH   8   9
ATOM      9  CE  MET A 624      13.394   2.728 -18.627  1.00 43.21    -0.035 C 
ATOM     10  HE3 MET A 624      12.864   2.875 -19.597  1.00  0.00     0.041 H 
ATOM     11  HE1 MET A 624      13.554   3.654 -18.027  1.00  0.00     0.041 H 
ATOM     12  HE2 MET A 624      12.646   2.014 -18.210  1.00  0.00     0.041 H 
ENDBRANCH   8   9
ENDBRANCH   5   8
ENDBRANCH   2   5
ENDBRANCH   1   2
END_RES MET A 624
BEGIN_RES LEU A 625
REMARK  4 active torsions:
REMARK  status: ('A' for Active; 'I' for Inactive)
REMARK    5  A    between atoms: CA   and  CB  
REMARK    6  A    between atoms: CB   and  CG  
REMARK    7  A    between atoms: CG   and  CD1 
REMARK    8  A    between atoms: CG   and  CD2 
ROOT
ATOM     13  CA  LEU A 625      17.135  -3.624 -16.776  1.00 49.20     0.089 C 
ENDROOT
BRANCH  13  14
ATOM     14  CB  LEU A 625      17.051  -5.150 -16.753  1.00 47.95    -0.035 C 
ATOM     15  HB2 LEU A 625      16.579  -5.508 -17.698  1.00  0.00     0.037 H 
ATOM     16  HB1 LEU A 625      18.075  -5.578 -16.857  1.00  0.00     0.037 H 
BRANCH  14  17
ATOM     17  CG  LEU A 625      16.352  -5.797 -15.562  1.00 41.83    -0.059 C 
ATOM     18  HG  LEU A 625      15.612  -5.075 -15.143  1.00  0.00     0.038 H 
BRANCH  17  19
ATOM     19  CD1 LEU A 625      15.616  -7.033 -16.031  1.00 45.22    -0.073 C 
ATOM     20 3HD1 LEU A 625      15.057  -7.532 -15.205  1.00  0.00     0.028 H 
ATOM     21 2HD1 LEU A 625      14.746  -6.786 -16.683  1.00  0.00     0.028 H 
ATOM     22 1HD1 LEU A 625      16.339  -7.719 -16.530  1.00  0.00     0.028 H 
ENDBRANCH  17  19
BRANCH  17  23
ATOM     23  CD2 LEU A 625      17.363  -6.141 -14.484  1.00 48.58    -0.073 C 
ATOM     24 1HD2 LEU A 625      16.874  -6.723 -13.669  1.00  0.00     0.028 H 
ATOM     25 3HD2 LEU A 625      18.251  -6.672 -14.901  1.00  0.00     0.028 H 
ATOM     26 2HD2 LEU A 625      17.882  -5.234 -14.095  1.00  0.00     0.028 H 
ENDBRANCH  17  23
ENDBRANCH  14  17
ENDBRANCH  13  14
END_RES LEU A 625
BEGIN_RES CYS A 673
REMARK  1 active torsions:
REMARK  status: ('A' for Active; 'I' for Inactive)
REMARK    9  A    between atoms: CA   and  CB  
ROOT
ATOM     27  CA  CYS A 673       6.053  10.339  -6.366  1.00 37.53     0.098 C 
ENDROOT
BRANCH  27  28
ATOM     28  CB  CYS A 673       6.430   9.481  -5.160  1.00 34.59     0.013 C 
ATOM     29  SG  CYS A 673       5.028   8.509  -4.538  1.00 37.22    -0.095 SA
ATOM     30  HB1 CYS A 673       7.303   8.826  -5.390  1.00  0.00     0.053 H 
ATOM     31  HB2 CYS A 673       6.881  10.101  -4.351  1.00  0.00     0.053 H 
ENDBRANCH  27  28
END_RES CYS A 673
ENDMDL
MODEL 2
REMARK VINA RESULT:    -8.163      2.868      8.856
REMARK INTER + INTRA:         -11.214
REMARK INTER:                 -11.189
REMARK INTRA:                  -0.024
REMARK UNBOUND:                 0.290
REMARK SMILES CCN(CC)CCNC(=O)c1c(C)[nH]c(/C=C2\C(=O)Nc3ccc(F)cc32)c1C
REMARK SMILES IDX 7 1 8 2 9 3 10 4 11 6 15 7 14 8 28 9 12 10 29 12 13 13 16 14
REMARK SMILES IDX 24 15 26 16 23 17 27 18 22 19 17 20 21 21 18 22 20 23 19 24
REMARK SMILES IDX 25 25 6 27 3 28 2 29 1 30 4 31 5 32
REMARK H PARENT 8 5 14 11 20 26
ROOT
ATOM      1  C   UNL     1       9.359   2.724  -9.505  1.00  0.00     0.131 C 
ENDROOT
BRANCH   1   2
ATOM      2  N   UNL     1      10.200   3.827  -9.076  1.00  0.00    -0.351 N 
ATOM      3  C   UNL     1      10.031   4.445  -7.856  1.00  0.00     0.253 C 
ATOM      4  O   UNL     1       9.163   4.115  -7.057  1.00  0.00    -0.269 OA
ATOM      5  H   UNL     1      11.063   3.997  -9.571  1.00  0.00     0.163 HD
BRANCH   3   6
ATOM      6  C   UNL     1      11.021   5.491  -7.575  1.00  0.00     0.063 A 
ATOM      7  C   UNL     1      12.138   7.481  -7.338  1.00  0.00     0.043 A 
ATOM      8  N   UNL     1      12.941   6.443  -6.941  1.00  0.00    -0.358 N 
ATOM      9  C   UNL     1      10.915   6.924  -7.713  1.00  0.00    -0.013 A 
ATOM     10  C   UNL     1      12.287   5.244  -7.067  1.00  0.00     0.025 A 
ATOM     11  H   UNL     1      13.890   6.536  -6.587  1.00  0.00     0.166 HD
ATOM     12  C   UNL     1       9.702   7.680  -8.143  1.00  0.00     0.047 C 
ATOM     13  C   UNL     1      12.946   3.965  -6.687  1.00  0.00     0.065 C 
BRANCH   7  14
ATOM     14  C   UNL     1      12.576   8.839  -7.310  1.00  0.00     0.041 C 
ATOM     15  C   UNL     1      13.915  13.170  -7.255  1.00  0.00     0.123 A 
ATOM     16  C   UNL     1      13.401  11.890  -7.470  1.00  0.00     0.050 A 
ATOM     17  C   UNL     1      14.688  13.478  -6.126  1.00  0.00     0.041 A 
ATOM     18  C   UNL     1      13.680  10.916  -6.526  1.00  0.00     0.014 A 
ATOM     19  C   UNL     1      14.966  12.495  -5.176  1.00  0.00     0.030 A 
ATOM     20  C   UNL     1      13.325   9.486  -6.402  1.00  0.00     0.051 C 
ATOM     21  C   UNL     1      14.451  11.233  -5.401  1.00  0.00     0.049 A 
ATOM     22  C   UNL     1      13.962   9.012  -5.116  1.00  0.00     0.256 C 
ATOM     23  N   UNL     1      14.607  10.118  -4.590  1.00  0.00    -0.321 N 
ATOM     24  O   UNL     1      13.936   7.900  -4.625  1.00  0.00    -0.269 OA
ATOM     25  F   UNL     1      13.663  14.133  -8.152  1.00  0.00    -0.207 F 
ATOM     26  H   UNL     1      15.122  10.085  -3.722  1.00  0.00     0.170 HD
ENDBRANCH   7  14
ENDBRANCH   3   6
ENDBRANCH   1   2
BRANCH   1  27
ATOM     27  C   UNL     1      10.124   1.389  -9.601  1.00  0.00     0.105 C 
BRANCH  27  28
ATOM     28  N   UNL     1       9.534   0.340  -8.735  1.00  0.00    -0.302 NA
BRANCH  28  29
ATOM     29  C   UNL     1       8.406   0.885  -7.955  1.00  0.00     0.081 C 
ATOM     30  C   UNL     1       7.714  -0.194  -7.126  1.00  0.00     0.021 C 
ENDBRANCH  28  29
BRANCH  28  31
ATOM     31  C   UNL     1      10.565  -0.226  -7.843  1.00  0.00     0.081 C 
ATOM     32  C   UNL     1      11.832   0.624  -7.821  1.00  0.00     0.021 C 
ENDBRANCH  28  31
ENDBRANCH  27  28
ENDBRANCH   1  27
TORSDOF 7
BEGIN_RES MET A 624
REMARK  4 active torsions:
REMARK  status: ('A' for Active; 'I' for Inactive)
REMARK    1  A    between atoms: CA   and  CB  
REMARK    2  A    between atoms: CB   and  CG  
REMARK    3  A    between atoms: CG   and  SD  
REMARK    4  A    between atoms: SD   and  CE  
ROOT
ATOM      1  CA  MET A 624      14.156  -1.311 -16.529  1.00 37.55     0.090 C 
ENDROOT
BRANCH   1   2
ATOM      2  CB  MET A 624      14.290  -0.416 -17.759  1.00 35.24    -0.030 C 
ATOM      3  HB2 MET A 624      15.022  -0.837 -18.488  1.00  0.00     0.037 H 
ATOM      4  HB1 MET A 624      13.371  -0.455 -18.389  1.00  0.00     0.037 H 
BRANCH   2   5
ATOM      5  CG  MET A 624      14.644   1.015 -17.387  1.00 41.56    -0.021 C 
ATOM      6  HG2 MET A 624      15.685   1.247 -17.712  1.00  0.00     0.049 H 
ATOM      7  HG1 MET A 624      14.757   1.104 -16.282  1.00  0.00     0.049 H 
BRANCH   5   8
ATOM      8  SD  MET A 624      13.514   2.276 -17.994  1.00 46.36    -0.173 SA
BRANCH   8   9
ATOM      9  CE  MET A 624      14.563   3.174 -19.133  1.00 43.21    -0.035 C 
ATOM     10  HE3 MET A 624      14.049   3.959 -19.736  1.00  0.00     0.041 H 
ATOM     11  HE1 MET A 624      15.015   2.342 -19.723  1.00  0.00     0.041 H 
ATOM     12  HE2 MET A 624      15.293   3.872 -18.659  1.00  0.00     0.041 H 
ENDBRANCH   8   9
ENDBRANCH   5   8
ENDBRANCH   2   5
ENDBRANCH   1   2
END_RES MET A 624
BEGIN_RES LEU A 625
REMARK  4 active torsions:
REMARK  status: ('A' for Active; 'I' for Inactive)
REMARK    5  A    between atoms: CA   and  CB  
REMARK    6  A    between atoms: CB   and  CG  
REMARK    7  A    between atoms: CG   and  CD1 
REMARK    8  A    between atoms: CG   and  CD2 
ROOT
ATOM     13  CA  LEU A 625      17.135  -3.624 -16.776  1.00 49.20     0.089 C 
ENDROOT
BRANCH  13  14
ATOM     14  CB  LEU A 625      17.051  -5.150 -16.753  1.00 47.95    -0.035 C 
ATOM     15  HB2 LEU A 625      16.549  -5.506 -17.683  1.00  0.00     0.037 H 
ATOM     16  HB1 LEU A 625      18.071  -5.578 -16.890  1.00  0.00     0.037 H 
BRANCH  14  17
ATOM     17  CG  LEU A 625      16.389  -5.799 -15.541  1.00 41.83    -0.059 C 
ATOM     18  HG  LEU A 625      15.666  -5.076 -15.097  1.00  0.00     0.038 H 
BRANCH  17  19
ATOM     19  CD1 LEU A 625      15.636  -7.031 -15.990  1.00 45.22    -0.073 C 
ATOM     20 3HD1 LEU A 625      16.319  -7.872 -16.257  1.00  0.00     0.028 H 
ATOM     21 2HD1 LEU A 625      15.097  -7.528 -15.149  1.00  0.00     0.028 H 
ATOM     22 1HD1 LEU A 625      14.953  -6.756 -16.828  1.00  0.00     0.028 H 
ENDBRANCH  17  19
BRANCH  17  23
ATOM     23  CD2 LEU A 625      17.434  -6.149 -14.499  1.00 48.58    -0.073 C 
ATOM     24 1HD2 LEU A 625      16.947  -6.589 -13.597  1.00  0.00     0.028 H 
ATOM     25 3HD2 LEU A 625      18.227  -6.816 -14.911  1.00  0.00     0.028 H 
ATOM     26 2HD2 LEU A 625      18.074  -5.273 -14.240  1.00  0.00     0.028 H 
ENDBRANCH  17  23
ENDBRANCH  14  17
ENDBRANCH  13  14
END_RES LEU A 625
BEGIN_RES CYS A 673
REMARK  1 active torsions:
REMARK  status: ('A' for Active; 'I' for Inactive)
REMARK    9  A    between atoms: CA   and  CB  
ROOT
ATOM     27  CA  CYS A 673       6.053  10.339  -6.366  1.00 37.53     0.098 C 
ENDROOT
BRANCH  27  28
ATOM     28  CB  CYS A 673       6.430   9.481  -5.160  1.00 34.59     0.013 C 
ATOM     29  SG  CYS A 673       5.023   8.523  -4.526  1.00 37.22    -0.095 SA
ATOM     30  HB1 CYS A 673       7.296   8.818  -5.393  1.00  0.00     0.053 H 
ATOM     31  HB2 CYS A 673       6.891  10.099  -4.355  1.00  0.00     0.053 H 
ENDBRANCH  27  28
END_RES CYS A 673
ENDMDL
MODEL 3
REMARK VINA RESULT:    -8.153      1.990      2.849
REMARK INTER + INTRA:         -11.199
REMARK INTER:                 -11.149
REMARK INTRA:                  -0.050
REMARK UNBOUND:                 0.290
REMARK SMILES CCN(CC)CCNC(=O)c1c(C)[nH]c(/C=C2\C(=O)Nc3ccc(F)cc32)c1C
REMARK SMILES IDX 7 1 8 2 9 3 10 4 11 6 15 7 14 8 28 9 12 10 29 12 13 13 16 14
REMARK SMILES IDX 24 15 26 16 23 17 27 18 22 19 17 20 21 21 18 22 20 23 19 24
REMARK SMILES IDX 25 25 6 27 3 28 2 29 1 30 4 31 5 32
REMARK H PARENT 8 5 14 11 20 26
ROOT
ATOM      1  C   UNL     1      15.199  10.880  -6.920  1.00  0.00     0.131 C 
ENDROOT
BRANCH   1   2
ATOM      2  N   UNL     1      14.756   9.513  -6.714  1.00  0.00    -0.351 N 
ATOM      3  C   UNL     1      14.008   9.143  -5.618  1.00  0.00     0.253 C 
ATOM      4  O   UNL     1      13.673   9.933  -4.742  1.00  0.00    -0.269 OA
ATOM      5  H   UNL     1      14.796   8.869  -7.490  1.00  0.00     0.163 HD
BRANCH   3   6
ATOM      6  C   UNL     1      13.599   7.733  -5.622  1.00  0.00     0.063 A 
ATOM      7  C   UNL     1      12.548   5.730  -6.007  1.00  0.00     0.043 A 
ATOM      8  N   UNL     1      13.574   5.557  -5.114  1.00  0.00    -0.358 N 
ATOM      9  C   UNL     1      12.554   7.077  -6.371  1.00  0.00    -0.013 A 
ATOM     10  C   UNL     1      14.221   6.743  -4.877  1.00  0.00     0.025 A 
ATOM     11  H   UNL     1      13.839   4.673  -4.687  1.00  0.00     0.166 HD
ATOM     12  C   UNL     1      11.662   7.716  -7.384  1.00  0.00     0.047 C 
ATOM     13  C   UNL     1      15.382   6.813  -3.949  1.00  0.00     0.065 C 
BRANCH   7  14
ATOM     14  C   UNL     1      11.711   4.654  -6.426  1.00  0.00     0.041 C 
ATOM     15  C   UNL     1       9.006   1.276  -7.780  1.00  0.00     0.123 A 
ATOM     16  C   UNL     1       9.646   2.437  -7.340  1.00  0.00     0.050 A 
ATOM     17  C   UNL     1       9.721   0.111  -8.095  1.00  0.00     0.041 A 
ATOM     18  C   UNL     1      11.025   2.407  -7.219  1.00  0.00     0.014 A 
ATOM     19  C   UNL     1      11.110   0.084  -7.974  1.00  0.00     0.030 A 
ATOM     20  C   UNL     1      12.033   3.404  -6.799  1.00  0.00     0.051 C 
ATOM     21  C   UNL     1      11.729   1.239  -7.537  1.00  0.00     0.049 A 
ATOM     22  C   UNL     1      13.370   2.708  -6.899  1.00  0.00     0.256 C 
ATOM     23  N   UNL     1      13.091   1.428  -7.347  1.00  0.00    -0.321 N 
ATOM     24  O   UNL     1      14.473   3.150  -6.641  1.00  0.00    -0.269 OA
ATOM     25  F   UNL     1       7.673   1.274  -7.906  1.00  0.00    -0.207 F 
ATOM     26  H   UNL     1      13.812   0.739  -7.504  1.00  0.00     0.170 HD
ENDBRANCH   7  14
ENDBRANCH   3   6
ENDBRANCH   1   2
BRANCH   1  27
ATOM     27  C   UNL     1      14.179  11.727  -7.707  1.00  0.00     0.105 C 
BRANCH  27  28
ATOM     28  N   UNL     1      13.444  12.674  -6.835  1.00  0.00    -0.302 NA
BRANCH  28  29
ATOM     29  C   UNL     1      12.033  12.777  -7.253  1.00  0.00     0.081 C 
ATOM     30  C   UNL     1      11.420  11.408  -7.531  1.00  0.00     0.021 C 
ENDBRANCH  28  29
BRANCH  28  31
ATOM     31  C   UNL     1      14.097  13.998  -6.854  1.00  0.00     0.081 C 
ATOM     32  C   UNL     1      14.680  14.368  -5.494  1.00  0.00     0.021 C 
ENDBRANCH  28  31
ENDBRANCH  27  28
ENDBRANCH   1  27
TORSDOF 7
BEGIN_RES MET A 624
REMARK  4 active torsions:
REMARK  status: ('A' for Active; 'I' for Inactive)
REMARK    1  A    between atoms: CA   and  CB  
REMARK    2  A    between atoms: CB   and  CG  
REMARK    3  A    between atoms: CG   and  SD  
REMARK    4  A    between atoms: SD   and  CE  
ROOT
ATOM      1  CA  MET A 624      14.156  -1.311 -16.529  1.00 37.55     0.090 C 
ENDROOT
BRANCH   1   2
ATOM      2  CB  MET A 624      14.290  -0.416 -17.759  1.00 35.24    -0.030 C 
ATOM      3  HB2 MET A 624      14.719  -0.977 -18.623  1.00  0.00     0.037 H 
ATOM      4  HB1 MET A 624      13.292  -0.167 -18.188  1.00  0.00     0.037 H 
BRANCH   2   5
ATOM      5  CG  MET A 624      15.093   0.841 -17.465  1.00 41.56    -0.021 C 
ATOM      6  HG2 MET A 624      16.021   0.854 -18.083  1.00  0.00     0.049 H 
ATOM      7  HG1 MET A 624      15.537   0.779 -16.444  1.00  0.00     0.049 H 
BRANCH   5   8
ATOM      8  SD  MET A 624      14.203   2.392 -17.656  1.00 46.36    -0.173 SA
BRANCH   8   9
ATOM      9  CE  MET A 624      14.430   2.718 -19.402  1.00 43.21    -0.035 C 
ATOM     10  HE3 MET A 624      13.497   2.950 -19.968  1.00  0.00     0.041 H 
ATOM     11  HE1 MET A 624      14.970   1.799 -19.731  1.00  0.00     0.041 H 
ATOM     12  HE2 MET A 624      14.937   3.681 -19.645  1.00  0.00     0.041 H 
ENDBRANCH   8   9
ENDBRANCH   5   8
ENDBRANCH   2   5
ENDBRANCH   1   2
END_RES MET A 624
BEGIN_RES LEU A 625
REMARK  4 active torsions:
REMARK  status: ('A' for Active; 'I' for Inactive)
REMARK    5  A    between atoms: CA   and  CB  
REMARK    6  A    between atoms: CB   and  CG  
REMARK    7  A    between atoms: CG   and  CD1 
REMARK    8  A    between atoms: CG   and  CD2 
ROOT
ATOM     13  CA  LEU A 625      17.135  -3.624 -16.776  1.00 49.20     0.089 C 
ENDROOT
BRANCH  13  14
ATOM     14  CB  LEU A 625      17.051  -5.150 -16.753  1.00 47.95    -0.035 C 
ATOM     15  HB2 LEU A 625      16.552  -5.506 -17.684  1.00  0.00     0.037 H 
ATOM     16  HB1 LEU A 625      18.072  -5.578 -16.888  1.00  0.00     0.037 H 
BRANCH  14  17
ATOM     17  CG  LEU A 625      16.387  -5.799 -15.543  1.00 41.83    -0.059 C 
ATOM     18  HG  LEU A 625      15.653  -5.080 -15.107  1.00  0.00     0.038 H 
BRANCH  17  19
ATOM     19  CD1 LEU A 625      15.647  -7.040 -15.991  1.00 45.22    -0.073 C 
ATOM     20 3HD1 LEU A 625      14.560  -6.850 -16.153  1.00  0.00     0.028 H 
ATOM     21 2HD1 LEU A 625      15.912  -7.339 -17.032  1.00  0.00     0.028 H 
ATOM     22 1HD1 LEU A 625      15.830  -7.858 -15.255  1.00  0.00     0.028 H 
ENDBRANCH  17  19
BRANCH  17  23
ATOM     23  CD2 LEU A 625      17.427  -6.134 -14.491  1.00 48.58    -0.073 C 
ATOM     24 1HD2 LEU A 625      17.201  -5.596 -13.541  1.00  0.00     0.028 H 
ATOM     25 3HD2 LEU A 625      17.522  -7.234 -14.334  1.00  0.00     0.028 H 
ATOM     26 2HD2 LEU A 625      18.463  -5.930 -14.849  1.00  0.00     0.028 H 
ENDBRANCH  17  23
ENDBRANCH  14  17
ENDBRANCH  13  14
END_RES LEU A 625
BEGIN_RES CYS A 673
REMARK  1 active torsions:
REMARK  status: ('A' for Active; 'I' for Inactive)
REMARK    9  A    between atoms: CA   and  CB  
ROOT
ATOM     27  CA  CYS A 673       6.053  10.339  -6.366  1.00 37.53     0.098 C 
ENDROOT
BRANCH  27  28
ATOM     28  CB  CYS A 673       6.430   9.481  -5.160  1.00 34.59     0.013 C 
ATOM     29  SG  CYS A 673       5.026   8.515  -4.533  1.00 37.22    -0.095 SA
ATOM     30  HB1 CYS A 673       7.300   8.823  -5.391  1.00  0.00     0.053 H 
ATOM     31  HB2 CYS A 673       6.885  10.100  -4.353  1.00  0.00     0.053 H 
ENDBRANCH  27  28
END_RES CYS A 673
ENDMDL
MODEL 4
REMARK VINA RESULT:    -8.135      5.474     11.572
REMARK INTER + INTRA:         -11.174
REMARK INTER:                 -11.334
REMARK INTRA:                   0.160
REMARK UNBOUND:                 0.290
REMARK SMILES CCN(CC)CCNC(=O)c1c(C)[nH]c(/C=C2\C(=O)Nc3ccc(F)cc32)c1C
REMARK SMILES IDX 7 1 8 2 9 3 10 4 11 6 15 7 14 8 28 9 12 10 29 12 13 13 16 14
REMARK SMILES IDX 24 15 26 16 23 17 27 18 22 19 17 20 21 21 18 22 20 23 19 24
REMARK SMILES IDX 25 25 6 27 3 28 2 29 1 30 4 31 5 32
REMARK H PARENT 8 5 14 11 20 26
ROOT
ATOM      1  C   UNL     1      16.618  -4.975 -11.432  1.00  0.00     0.131 C 
ENDROOT
BRANCH   1   2
ATOM      2  N   UNL     1      16.232  -3.950 -10.479  1.00  0.00    -0.351 N 
ATOM      3  C   UNL     1      17.160  -3.149  -9.851  1.00  0.00     0.253 C 
ATOM      4  O   UNL     1      18.367  -3.248 -10.044  1.00  0.00    -0.269 OA
ATOM      5  H   UNL     1      15.266  -3.661 -10.444  1.00  0.00     0.163 HD
BRANCH   3   6
ATOM      6  C   UNL     1      16.573  -2.128  -8.976  1.00  0.00     0.063 A 
ATOM      7  C   UNL     1      15.770  -0.178  -8.071  1.00  0.00     0.043 A 
ATOM      8  N   UNL     1      15.636  -1.203  -7.170  1.00  0.00    -0.358 N 
ATOM      9  C   UNL     1      16.326  -0.727  -9.227  1.00  0.00    -0.013 A 
ATOM     10  C   UNL     1      16.102  -2.380  -7.696  1.00  0.00     0.025 A 
ATOM     11  H   UNL     1      15.234  -1.118  -6.240  1.00  0.00     0.166 HD
ATOM     12  C   UNL     1      16.583  -0.003 -10.507  1.00  0.00     0.047 C 
ATOM     13  C   UNL     1      16.053  -3.645  -6.914  1.00  0.00     0.065 C 
BRANCH   7  14
ATOM     14  C   UNL     1      15.364   1.158  -7.775  1.00  0.00     0.041 C 
ATOM     15  C   UNL     1      14.121   5.423  -6.869  1.00  0.00     0.123 A 
ATOM     16  C   UNL     1      14.716   4.195  -7.164  1.00  0.00     0.050 A 
ATOM     17  C   UNL     1      12.743   5.542  -6.639  1.00  0.00     0.041 A 
ATOM     18  C   UNL     1      13.897   3.080  -7.224  1.00  0.00     0.014 A 
ATOM     19  C   UNL     1      11.920   4.418  -6.701  1.00  0.00     0.030 A 
ATOM     20  C   UNL     1      14.144   1.648  -7.501  1.00  0.00     0.051 C 
ATOM     21  C   UNL     1      12.522   3.209  -6.994  1.00  0.00     0.049 A 
ATOM     22  C   UNL     1      12.796   0.971  -7.405  1.00  0.00     0.256 C 
ATOM     23  N   UNL     1      11.894   1.976  -7.102  1.00  0.00    -0.321 N 
ATOM     24  O   UNL     1      12.530  -0.207  -7.551  1.00  0.00    -0.269 OA
ATOM     25  F   UNL     1      14.888   6.519  -6.804  1.00  0.00    -0.207 F 
ATOM     26  H   UNL     1      10.907   1.801  -6.980  1.00  0.00     0.170 HD
ENDBRANCH   7  14
ENDBRANCH   3   6
ENDBRANCH   1   2
BRANCH   1  27
ATOM     27  C   UNL     1      15.484  -5.979 -11.723  1.00  0.00     0.105 C 
BRANCH  27  28
ATOM     28  N   UNL     1      15.834  -7.358 -11.307  1.00  0.00    -0.302 NA
BRANCH  28  29
ATOM     29  C   UNL     1      15.226  -7.677 -10.002  1.00  0.00     0.081 C 
ATOM     30  C   UNL     1      13.844  -7.048  -9.849  1.00  0.00     0.021 C 
ENDBRANCH  28  29
BRANCH  28  31
ATOM     31  C   UNL     1      17.301  -7.519 -11.258  1.00  0.00     0.081 C 
ATOM     32  C   UNL     1      17.732  -8.518 -10.190  1.00  0.00     0.021 C 
ENDBRANCH  28  31
ENDBRANCH  27  28
ENDBRANCH   1  27
TORSDOF 7
BEGIN_RES MET A 624
REMARK  4 active torsions:
REMARK  status: ('A' for Active; 'I' for Inactive)
REMARK    1  A    between atoms: CA   and  CB  
REMARK    2  A    between atoms: CB   and  CG  
REMARK    3  A    between atoms: CG   and  SD  
REMARK    4  A    between atoms: SD   and  CE  
ROOT
ATOM      1  CA  MET A 624      14.156  -1.311 -16.529  1.00 37.55     0.090 C 
ENDROOT
BRANCH   1   2
ATOM      2  CB  MET A 624      14.290  -0.416 -17.759  1.00 35.24    -0.030 C 
ATOM      3  HB2 MET A 624      14.723  -0.975 -18.621  1.00  0.00     0.037 H 
ATOM      4  HB1 MET A 624      13.292  -0.171 -18.191  1.00  0.00     0.037 H 
BRANCH   2   5
ATOM      5  CG  MET A 624      15.087   0.844 -17.463  1.00 41.56    -0.021 C 
ATOM      6  HG2 MET A 624      16.130   0.576 -17.171  1.00  0.00     0.049 H 
ATOM      7  HG1 MET A 624      14.730   1.307 -16.514  1.00  0.00     0.049 H 
BRANCH   5   8
ATOM      8  SD  MET A 624      15.112   2.073 -18.776  1.00 46.36    -0.173 SA
BRANCH   8   9
ATOM      9  CE  MET A 624      13.455   2.744 -18.666  1.00 43.21    -0.035 C 
ATOM     10  HE3 MET A 624      13.249   3.355 -17.757  1.00  0.00     0.041 H 
ATOM     11  HE1 MET A 624      12.835   1.822 -18.771  1.00  0.00     0.041 H 
ATOM     12  HE2 MET A 624      13.223   3.559 -19.391  1.00  0.00     0.041 H 
ENDBRANCH   8   9
ENDBRANCH   5   8
ENDBRANCH   2   5
ENDBRANCH   1   2
END_RES MET A 624
BEGIN_RES LEU A 625
REMARK  4 active torsions:
REMARK  status: ('A' for Active; 'I' for Inactive)
REMARK    5  A    between atoms: CA   and  CB  
REMARK    6  A    between atoms: CB   and  CG  
REMARK    7  A    between atoms: CG   and  CD1 
REMARK    8  A    between atoms: CG   and  CD2 
ROOT
ATOM     13  CA  LEU A 625      17.135  -3.624 -16.776  1.00 49.20     0.089 C 
ENDROOT
BRANCH  13  14
ATOM     14  CB  LEU A 625      17.051  -5.150 -16.753  1.00 47.95    -0.035 C 
ATOM     15  HB2 LEU A 625      16.414  -5.498 -17.599  1.00  0.00     0.037 H 
ATOM     16  HB1 LEU A 625      18.038  -5.578 -17.046  1.00  0.00     0.037 H 
BRANCH  14  17
ATOM     17  CG  LEU A 625      16.578  -5.808 -15.461  1.00 41.83    -0.059 C 
ATOM     18  HG  LEU A 625      16.011  -5.057 -14.861  1.00  0.00     0.038 H 
BRANCH  17  19
ATOM     19  CD1 LEU A 625      15.656  -6.958 -15.800  1.00 45.22    -0.073 C 
ATOM     20 3HD1 LEU A 625      14.755  -6.626 -16.368  1.00  0.00     0.028 H 
ATOM     21 2HD1 LEU A 625      16.089  -7.634 -16.574  1.00  0.00     0.028 H 
ATOM     22 1HD1 LEU A 625      15.391  -7.501 -14.863  1.00  0.00     0.028 H 
ENDBRANCH  17  19
BRANCH  17  23
ATOM     23  CD2 LEU A 625      17.768  -6.285 -14.650  1.00 48.58    -0.073 C 
ATOM     24 1HD2 LEU A 625      17.496  -6.354 -13.570  1.00  0.00     0.028 H 
ATOM     25 3HD2 LEU A 625      18.179  -7.246 -15.038  1.00  0.00     0.028 H 
ATOM     26 2HD2 LEU A 625      18.666  -5.645 -14.812  1.00  0.00     0.028 H 
ENDBRANCH  17  23
ENDBRANCH  14  17
ENDBRANCH  13  14
END_RES LEU A 625
BEGIN_RES CYS A 673
REMARK  1 active torsions:
REMARK  status: ('A' for Active; 'I' for Inactive)
REMARK    9  A    between atoms: CA   and  CB  
ROOT
ATOM     27  CA  CYS A 673       6.053  10.339  -6.366  1.00 37.53     0.098 C 
ENDROOT
BRANCH  27  28
ATOM     28  CB  CYS A 673       6.430   9.481  -5.160  1.00 34.59     0.013 C 
ATOM     29  SG  CYS A 673       5.024   8.521  -4.528  1.00 37.22    -0.095 SA
ATOM     30  HB1 CYS A 673       7.297   8.820  -5.393  1.00  0.00     0.053 H 
ATOM     31  HB2 CYS A 673       6.889  10.099  -4.354  1.00  0.00     0.053 H 
ENDBRANCH  27  28
END_RES CYS A 673
ENDMDL
MODEL 5
REMARK VINA RESULT:    -8.121      4.769      9.941
REMARK INTER + INTRA:         -11.154
REMARK INTER:                 -11.506
REMARK INTRA:                   0.352
REMARK UNBOUND:                 0.290
REMARK SMILES CCN(CC)CCNC(=O)c1c(C)[nH]c(/C=C2\C(=O)Nc3ccc(F)cc32)c1C
REMARK SMILES IDX 7 1 8 2 9 3 10 4 11 6 15 7 14 8 28 9 12 10 29 12 13 13 16 14
REMARK SMILES IDX 24 15 26 16 23 17 27 18 22 19 17 20 21 21 18 22 20 23 19 24
REMARK SMILES IDX 25 25 6 27 3 28 2 29 1 30 4 31 5 32
REMARK H PARENT 8 5 14 11 20 26
ROOT
ATOM      1  C   UNL     1      17.352  -2.622  -9.134  1.00  0.00     0.131 C 
ENDROOT
BRANCH   1   2
ATOM      2  N   UNL     1      16.893  -1.263  -8.911  1.00  0.00    -0.351 N 
ATOM      3  C   UNL     1      16.845  -0.703  -7.654  1.00  0.00     0.253 C 
ATOM      4  O   UNL     1      17.179  -1.309  -6.641  1.00  0.00    -0.269 OA
ATOM      5  H   UNL     1      16.822  -0.641  -9.703  1.00  0.00     0.163 HD
BRANCH   3   6
ATOM      6  C   UNL     1      16.419   0.701  -7.641  1.00  0.00     0.063 A 
ATOM      7  C   UNL     1      15.213   2.653  -7.681  1.00  0.00     0.043 A 
ATOM      8  N   UNL     1      16.551   2.931  -7.562  1.00  0.00    -0.358 N 
ATOM      9  C   UNL     1      15.090   1.263  -7.702  1.00  0.00    -0.013 A 
ATOM     10  C   UNL     1      17.288   1.775  -7.527  1.00  0.00     0.025 A 
ATOM     11  H   UNL     1      16.954   3.861  -7.495  1.00  0.00     0.166 HD
ATOM     12  C   UNL     1      13.810   0.496  -7.741  1.00  0.00     0.047 C 
ATOM     13  C   UNL     1      18.769   1.812  -7.390  1.00  0.00     0.065 C 
BRANCH   7  14
ATOM     14  C   UNL     1      14.223   3.678  -7.742  1.00  0.00     0.041 C 
ATOM     15  C   UNL     1      11.032   6.892  -7.944  1.00  0.00     0.123 A 
ATOM     16  C   UNL     1      11.872   5.780  -8.012  1.00  0.00     0.050 A 
ATOM     17  C   UNL     1      11.392   8.051  -7.241  1.00  0.00     0.041 A 
ATOM     18  C   UNL     1      13.090   5.851  -7.358  1.00  0.00     0.014 A 
ATOM     19  C   UNL     1      12.620   8.120  -6.583  1.00  0.00     0.030 A 
ATOM     20  C   UNL     1      14.219   4.908  -7.202  1.00  0.00     0.051 C 
ATOM     21  C   UNL     1      13.441   7.011  -6.658  1.00  0.00     0.049 A 
ATOM     22  C   UNL     1      15.245   5.629  -6.358  1.00  0.00     0.256 C 
ATOM     23  N   UNL     1      14.696   6.870  -6.082  1.00  0.00    -0.321 N 
ATOM     24  O   UNL     1      16.334   5.232  -5.990  1.00  0.00    -0.269 OA
ATOM     25  F   UNL     1       9.846   6.853  -8.567  1.00  0.00    -0.207 F 
ATOM     26  H   UNL     1      15.175   7.564  -5.527  1.00  0.00     0.170 HD
ENDBRANCH   7  14
ENDBRANCH   3   6
ENDBRANCH   1   2
BRANCH   1  27
ATOM     27  C   UNL     1      18.041  -2.805 -10.502  1.00  0.00     0.105 C 
BRANCH  27  28
ATOM     28  N   UNL     1      17.248  -3.658 -11.420  1.00  0.00    -0.302 NA
BRANCH  28  29
ATOM     29  C   UNL     1      16.331  -2.835 -12.231  1.00  0.00     0.081 C 
ATOM     30  C   UNL     1      15.220  -3.671 -12.859  1.00  0.00     0.021 C 
ENDBRANCH  28  29
BRANCH  28  31
ATOM     31  C   UNL     1      16.503  -4.676 -10.654  1.00  0.00     0.081 C 
ATOM     32  C   UNL     1      17.153  -6.053 -10.750  1.00  0.00     0.021 C 
ENDBRANCH  28  31
ENDBRANCH  27  28
ENDBRANCH   1  27
TORSDOF 7
BEGIN_RES MET A 624
REMARK  4 active torsions:
REMARK  status: ('A' for Active; 'I' for Inactive)
REMARK    1  A    between atoms: CA   and  CB  
REMARK    2  A    between atoms: CB   and  CG  
REMARK    3  A    between atoms: CG   and  SD  
REMARK    4  A    between atoms: SD   and  CE  
ROOT
ATOM      1  CA  MET A 624      14.156  -1.311 -16.529  1.00 37.55     0.090 C 
ENDROOT
BRANCH   1   2
ATOM      2  CB  MET A 624      14.290  -0.416 -17.759  1.00 35.24    -0.030 C 
ATOM      3  HB2 MET A 624      14.704  -0.981 -18.627  1.00  0.00     0.037 H 
ATOM      4  HB1 MET A 624      13.291  -0.154 -18.179  1.00  0.00     0.037 H 
BRANCH   2   5
ATOM      5  CG  MET A 624      15.111   0.831 -17.470  1.00 41.56    -0.021 C 
ATOM      6  HG2 MET A 624      16.174   0.552 -17.280  1.00  0.00     0.049 H 
ATOM      7  HG1 MET A 624      14.834   1.246 -16.473  1.00  0.00     0.049 H 
BRANCH   5   8
ATOM      8  SD  MET A 624      15.026   2.121 -18.720  1.00 46.36    -0.173 SA
BRANCH   8   9
ATOM      9  CE  MET A 624      13.320   2.645 -18.575  1.00 43.21    -0.035 C 
ATOM     10  HE3 MET A 624      12.670   1.984 -17.955  1.00  0.00     0.041 H 
ATOM     11  HE1 MET A 624      13.023   2.734 -19.647  1.00  0.00     0.041 H 
ATOM     12  HE2 MET A 624      13.153   3.559 -17.957  1.00  0.00     0.041 H 
ENDBRANCH   8   9
ENDBRANCH   5   8
ENDBRANCH   2   5
ENDBRANCH   1   2
END_RES MET A 624
BEGIN_RES LEU A 625
REMARK  4 active torsions:
REMARK  status: ('A' for Active; 'I' for Inactive)
REMARK    5  A    between atoms: CA   and  CB  
REMARK    6  A    between atoms: CB   and  CG  
REMARK    7  A    between atoms: CG   and  CD1 
REMARK    8  A    between atoms: CG   and  CD2 
ROOT
ATOM     13  CA  LEU A 625      17.135  -3.624 -16.776  1.00 49.20     0.089 C 
ENDROOT
BRANCH  13  14
ATOM     14  CB  LEU A 625      17.051  -5.150 -16.753  1.00 47.95    -0.035 C 
ATOM     15  HB2 LEU A 625      16.523  -5.505 -17.669  1.00  0.00     0.037 H 
ATOM     16  HB1 LEU A 625      18.067  -5.578 -16.920  1.00  0.00     0.037 H 
BRANCH  14  17
ATOM     17  CG  LEU A 625      16.424  -5.800 -15.524  1.00 41.83    -0.059 C 
ATOM     18  HG  LEU A 625      15.720  -5.075 -15.053  1.00  0.00     0.038 H 
BRANCH  17  19
ATOM     19  CD1 LEU A 625      15.649  -7.026 -15.954  1.00 45.22    -0.073 C 
ATOM     20 3HD1 LEU A 625      15.006  -7.429 -15.136  1.00  0.00     0.028 H 
ATOM     21 2HD1 LEU A 625      14.841  -6.782 -16.683  1.00  0.00     0.028 H 
ATOM     22 1HD1 LEU A 625      16.361  -7.788 -16.349  1.00  0.00     0.028 H 
ENDBRANCH  17  19
BRANCH  17  23
ATOM     23  CD2 LEU A 625      17.500  -6.162 -14.517  1.00 48.58    -0.073 C 
ATOM     24 1HD2 LEU A 625      17.131  -6.957 -13.828  1.00  0.00     0.028 H 
ATOM     25 3HD2 LEU A 625      18.455  -6.452 -15.014  1.00  0.00     0.028 H 
ATOM     26 2HD2 LEU A 625      17.868  -5.268 -13.962  1.00  0.00     0.028 H 
ENDBRANCH  17  23
ENDBRANCH  14  17
ENDBRANCH  13  14
END_RES LEU A 625
BEGIN_RES CYS A 673
REMARK  1 active torsions:
REMARK  status: ('A' for Active; 'I' for Inactive)
REMARK    9  A    between atoms: CA   and  CB  
ROOT
ATOM     27  CA  CYS A 673       6.053  10.339  -6.366  1.00 37.53     0.098 C 
ENDROOT
BRANCH  27  28
ATOM     28  CB  CYS A 673       6.430   9.481  -5.160  1.00 34.59     0.013 C 
ATOM     29  SG  CYS A 673       5.026   8.513  -4.534  1.00 37.22    -0.095 SA
ATOM     30  HB1 CYS A 673       7.301   8.824  -5.391  1.00  0.00     0.053 H 
ATOM     31  HB2 CYS A 673       6.884  10.100  -4.352  1.00  0.00     0.053 H 
ENDBRANCH  27  28
END_RES CYS A 673
ENDMDL
MODEL 6
REMARK VINA RESULT:    -8.055      2.946      8.442
REMARK INTER + INTRA:         -11.061
REMARK INTER:                 -11.869
REMARK INTRA:                   0.808
REMARK UNBOUND:                 0.290
REMARK SMILES CCN(CC)CCNC(=O)c1c(C)[nH]c(/C=C2\C(=O)Nc3ccc(F)cc32)c1C
REMARK SMILES IDX 7 1 8 2 9 3 10 4 11 6 15 7 14 8 28 9 12 10 29 12 13 13 16 14
REMARK SMILES IDX 24 15 26 16 23 17 27 18 22 19 17 20 21 21 18 22 20 23 19 24
REMARK SMILES IDX 25 25 6 27 3 28 2 29 1 30 4 31 5 32
REMARK H PARENT 8 5 14 11 20 26
ROOT
ATOM      1  C   UNL     1      12.081   0.825  -7.934  1.00  0.00     0.131 C 
ENDROOT
BRANCH   1   2
ATOM      2  N   UNL     1      11.921   2.268  -7.936  1.00  0.00    -0.351 N 
ATOM      3  C   UNL     1      12.295   3.047  -6.863  1.00  0.00     0.253 C 
ATOM      4  O   UNL     1      12.779   2.581  -5.837  1.00  0.00    -0.269 OA
ATOM      5  H   UNL     1      11.749   2.734  -8.814  1.00  0.00     0.163 HD
BRANCH   3   6
ATOM      6  C   UNL     1      12.119   4.488  -7.081  1.00  0.00     0.063 A 
ATOM      7  C   UNL     1      12.390   6.763  -7.191  1.00  0.00     0.043 A 
ATOM      8  N   UNL     1      11.152   6.415  -7.667  1.00  0.00    -0.358 N 
ATOM      9  C   UNL     1      13.036   5.577  -6.843  1.00  0.00    -0.013 A 
ATOM     10  C   UNL     1      10.975   5.057  -7.618  1.00  0.00     0.025 A 
ATOM     11  H   UNL     1      10.456   7.064  -8.023  1.00  0.00     0.166 HD
ATOM     12  C   UNL     1      14.440   5.455  -6.350  1.00  0.00     0.047 C 
ATOM     13  C   UNL     1       9.711   4.429  -8.092  1.00  0.00     0.065 C 
BRANCH   7  14
ATOM     14  C   UNL     1      12.831   8.119  -7.129  1.00  0.00     0.041 C 
ATOM     15  C   UNL     1      14.291  12.408  -6.950  1.00  0.00     0.123 A 
ATOM     16  C   UNL     1      14.057  11.031  -6.954  1.00  0.00     0.050 A 
ATOM     17  C   UNL     1      13.269  13.333  -7.209  1.00  0.00     0.041 A 
ATOM     18  C   UNL     1      12.770  10.596  -7.222  1.00  0.00     0.014 A 
ATOM     19  C   UNL     1      11.973  12.892  -7.479  1.00  0.00     0.030 A 
ATOM     20  C   UNL     1      12.145   9.259  -7.314  1.00  0.00     0.051 C 
ATOM     21  C   UNL     1      11.757  11.527  -7.480  1.00  0.00     0.049 A 
ATOM     22  C   UNL     1      10.691   9.505  -7.642  1.00  0.00     0.256 C 
ATOM     23  N   UNL     1      10.554  10.880  -7.722  1.00  0.00    -0.321 N 
ATOM     24  O   UNL     1       9.803   8.688  -7.800  1.00  0.00    -0.269 OA
ATOM     25  F   UNL     1      15.526  12.859  -6.693  1.00  0.00    -0.207 F 
ATOM     26  H   UNL     1       9.673  11.326  -7.932  1.00  0.00     0.170 HD
ENDBRANCH   7  14
ENDBRANCH   3   6
ENDBRANCH   1   2
BRANCH   1  27
ATOM     27  C   UNL     1      10.735   0.073  -7.932  1.00  0.00     0.105 C 
BRANCH  27  28
ATOM     28  N   UNL     1       9.622   0.913  -8.437  1.00  0.00    -0.302 NA
BRANCH  28  29
ATOM     29  C   UNL     1       8.417   0.733  -7.605  1.00  0.00     0.081 C 
ATOM     30  C   UNL     1       7.934  -0.715  -7.609  1.00  0.00     0.021 C 
ENDBRANCH  28  29
BRANCH  28  31
ATOM     31  C   UNL     1       9.340   0.591  -9.850  1.00  0.00     0.081 C 
ATOM     32  C   UNL     1       9.730   1.730 -10.786  1.00  0.00     0.021 C 
ENDBRANCH  28  31
ENDBRANCH  27  28
ENDBRANCH   1  27
TORSDOF 7
BEGIN_RES MET A 624
REMARK  4 active torsions:
REMARK  status: ('A' for Active; 'I' for Inactive)
REMARK    1  A    between atoms: CA   and  CB  
REMARK    2  A    between atoms: CB   and  CG  
REMARK    3  A    between atoms: CG   and  SD  
REMARK    4  A    between atoms: SD   and  CE  
ROOT
ATOM      1  CA  MET A 624      14.156  -1.311 -16.529  1.00 37.55     0.090 C 
ENDROOT
BRANCH   1   2
ATOM      2  CB  MET A 624      14.290  -0.416 -17.759  1.00 35.24    -0.030 C 
ATOM      3  HB2 MET A 624      14.736  -0.972 -18.617  1.00  0.00     0.037 H 
ATOM      4  HB1 MET A 624      13.293  -0.182 -18.199  1.00  0.00     0.037 H 
BRANCH   2   5
ATOM      5  CG  MET A 624      15.071   0.853 -17.458  1.00 41.56    -0.021 C 
ATOM      6  HG2 MET A 624      16.001   0.884 -18.073  1.00  0.00     0.049 H 
ATOM      7  HG1 MET A 624      15.512   0.796 -16.436  1.00  0.00     0.049 H 
BRANCH   5   8
ATOM      8  SD  MET A 624      14.156   2.390 -17.649  1.00 46.36    -0.173 SA
BRANCH   8   9
ATOM      9  CE  MET A 624      14.336   2.695 -19.404  1.00 43.21    -0.035 C 
ATOM     10  HE3 MET A 624      15.063   3.496 -19.676  1.00  0.00     0.041 H 
ATOM     11  HE1 MET A 624      13.280   2.889 -19.705  1.00  0.00     0.041 H 
ATOM     12  HE2 MET A 624      14.854   1.890 -19.977  1.00  0.00     0.041 H 
ENDBRANCH   8   9
ENDBRANCH   5   8
ENDBRANCH   2   5
ENDBRANCH   1   2
END_RES MET A 624
BEGIN_RES LEU A 625
REMARK  4 active torsions:
REMARK  status: ('A' for Active; 'I' for Inactive)
REMARK    5  A    between atoms: CA   and  CB  
REMARK    6  A    between atoms: CB   and  CG  
REMARK    7  A    between atoms: CG   and  CD1 
REMARK    8  A    between atoms: CG   and  CD2 
ROOT
ATOM     13  CA  LEU A 625      17.135  -3.624 -16.776  1.00 49.20     0.089 C 
ENDROOT
BRANCH  13  14
ATOM     14  CB  LEU A 625      17.051  -5.150 -16.753  1.00 47.95    -0.035 C 
ATOM     15  HB2 LEU A 625      16.549  -5.506 -17.683  1.00  0.00     0.037 H 
ATOM     16  HB1 LEU A 625      18.071  -5.578 -16.891  1.00  0.00     0.037 H 
BRANCH  14  17
ATOM     17  CG  LEU A 625      16.390  -5.799 -15.541  1.00 41.83    -0.059 C 
ATOM     18  HG  LEU A 625      15.665  -5.076 -15.097  1.00  0.00     0.038 H 
BRANCH  17  19
ATOM     19  CD1 LEU A 625      15.638  -7.032 -15.989  1.00 45.22    -0.073 C 
ATOM     20 3HD1 LEU A 625      15.111  -7.537 -15.145  1.00  0.00     0.028 H 
ATOM     21 2HD1 LEU A 625      14.743  -6.782 -16.606  1.00  0.00     0.028 H 
ATOM     22 1HD1 LEU A 625      16.341  -7.715 -16.520  1.00  0.00     0.028 H 
ENDBRANCH  17  19
BRANCH  17  23
ATOM     23  CD2 LEU A 625      17.435  -6.147 -14.498  1.00 48.58    -0.073 C 
ATOM     24 1HD2 LEU A 625      17.597  -7.250 -14.468  1.00  0.00     0.028 H 
ATOM     25 3HD2 LEU A 625      18.388  -5.591 -14.661  1.00  0.00     0.028 H 
ATOM     26 2HD2 LEU A 625      17.175  -5.736 -13.495  1.00  0.00     0.028 H 
ENDBRANCH  17  23
ENDBRANCH  14  17
ENDBRANCH  13  14
END_RES LEU A 625
BEGIN_RES CYS A 673
REMARK  1 active torsions:
REMARK  status: ('A' for Active; 'I' for Inactive)
REMARK    9  A    between atoms: CA   and  CB  
ROOT
ATOM     27  CA  CYS A 673       6.053  10.339  -6.366  1.00 37.53     0.098 C 
ENDROOT
BRANCH  27  28
ATOM     28  CB  CYS A 673       6.430   9.481  -5.160  1.00 34.59     0.013 C 
ATOM     29  SG  CYS A 673       5.024   8.522  -4.527  1.00 37.22    -0.095 SA
ATOM     30  HB1 CYS A 673       7.296   8.819  -5.393  1.00  0.00     0.053 H 
ATOM     31  HB2 CYS A 673       6.890  10.099  -4.355  1.00  0.00     0.053 H 
ENDBRANCH  27  28
END_RES CYS A 673
ENDMDL
MODEL 7
REMARK VINA RESULT:    -8.004      2.137      2.878
REMARK INTER + INTRA:         -10.989
REMARK INTER:                 -10.788
REMARK INTRA:                  -0.201
REMARK UNBOUND:                 0.290
REMARK SMILES CCN(CC)CCNC(=O)c1c(C)[nH]c(/C=C2\C(=O)Nc3ccc(F)cc32)c1C
REMARK SMILES IDX 7 1 8 2 9 3 10 4 11 6 15 7 14 8 28 9 12 10 29 12 13 13 16 14
REMARK SMILES IDX 24 15 26 16 23 17 27 18 22 19 17 20 21 21 18 22 20 23 19 24
REMARK SMILES IDX 25 25 6 27 3 28 2 29 1 30 4 31 5 32
REMARK H PARENT 8 5 14 11 20 26
ROOT
ATOM      1  C   UNL     1      14.784  11.042  -7.276  1.00  0.00     0.131 C 
ENDROOT
BRANCH   1   2
ATOM      2  N   UNL     1      14.399   9.662  -7.041  1.00  0.00    -0.351 N 
ATOM      3  C   UNL     1      13.878   9.242  -5.837  1.00  0.00     0.253 C 
ATOM      4  O   UNL     1      13.712   9.995  -4.884  1.00  0.00    -0.269 OA
ATOM      5  H   UNL     1      14.293   9.048  -7.835  1.00  0.00     0.163 HD
BRANCH   3   6
ATOM      6  C   UNL     1      13.485   7.828  -5.816  1.00  0.00     0.063 A 
ATOM      7  C   UNL     1      12.447   5.810  -6.153  1.00  0.00     0.043 A 
ATOM      8  N   UNL     1      13.501   5.657  -5.289  1.00  0.00    -0.358 N 
ATOM      9  C   UNL     1      12.426   7.154  -6.528  1.00  0.00    -0.013 A 
ATOM     10  C   UNL     1      14.141   6.852  -5.082  1.00  0.00     0.025 A 
ATOM     11  H   UNL     1      13.788   4.780  -4.863  1.00  0.00     0.166 HD
ATOM     12  C   UNL     1      11.497   7.773  -7.520  1.00  0.00     0.047 C 
ATOM     13  C   UNL     1      15.328   6.944  -4.190  1.00  0.00     0.065 C 
BRANCH   7  14
ATOM     14  C   UNL     1      11.610   4.721  -6.537  1.00  0.00     0.041 C 
ATOM     15  C   UNL     1       8.906   1.300  -7.779  1.00  0.00     0.123 A 
ATOM     16  C   UNL     1       9.544   2.470  -7.364  1.00  0.00     0.050 A 
ATOM     17  C   UNL     1       9.625   0.148  -8.131  1.00  0.00     0.041 A 
ATOM     18  C   UNL     1      10.928   2.464  -7.307  1.00  0.00     0.014 A 
ATOM     19  C   UNL     1      11.019   0.145  -8.072  1.00  0.00     0.030 A 
ATOM     20  C   UNL     1      11.936   3.477  -6.929  1.00  0.00     0.051 C 
ATOM     21  C   UNL     1      11.637   1.310  -7.661  1.00  0.00     0.049 A 
ATOM     22  C   UNL     1      13.279   2.804  -7.092  1.00  0.00     0.256 C 
ATOM     23  N   UNL     1      13.003   1.521  -7.532  1.00  0.00    -0.321 N 
ATOM     24  O   UNL     1      14.385   3.265  -6.883  1.00  0.00    -0.269 OA
ATOM     25  F   UNL     1       7.568   1.275  -7.844  1.00  0.00    -0.207 F 
ATOM     26  H   UNL     1      13.727   0.845  -7.724  1.00  0.00     0.170 HD
ENDBRANCH   7  14
ENDBRANCH   3   6
ENDBRANCH   1   2
BRANCH   1  27
ATOM     27  C   UNL     1      16.298  11.279  -7.097  1.00  0.00     0.105 C 
BRANCH  27  28
ATOM     28  N   UNL     1      16.595  12.163  -5.943  1.00  0.00    -0.302 NA
BRANCH  28  29
ATOM     29  C   UNL     1      16.946  11.363  -4.754  1.00  0.00     0.081 C 
ATOM     30  C   UNL     1      17.614  10.044  -5.132  1.00  0.00     0.021 C 
ENDBRANCH  28  29
BRANCH  28  31
ATOM     31  C   UNL     1      15.443  13.042  -5.665  1.00  0.00     0.081 C 
ATOM     32  C   UNL     1      15.850  14.510  -5.580  1.00  0.00     0.021 C 
ENDBRANCH  28  31
ENDBRANCH  27  28
ENDBRANCH   1  27
TORSDOF 7
BEGIN_RES MET A 624
REMARK  4 active torsions:
REMARK  status: ('A' for Active; 'I' for Inactive)
REMARK    1  A    between atoms: CA   and  CB  
REMARK    2  A    between atoms: CB   and  CG  
REMARK    3  A    between atoms: CG   and  SD  
REMARK    4  A    between atoms: SD   and  CE  
ROOT
ATOM      1  CA  MET A 624      14.156  -1.311 -16.529  1.00 37.55     0.090 C 
ENDROOT
BRANCH   1   2
ATOM      2  CB  MET A 624      14.290  -0.416 -17.759  1.00 35.24    -0.030 C 
ATOM      3  HB2 MET A 624      14.999  -0.852 -18.501  1.00  0.00     0.037 H 
ATOM      4  HB1 MET A 624      13.360  -0.431 -18.373  1.00  0.00     0.037 H 
BRANCH   2   5
ATOM      5  CG  MET A 624      14.684   1.005 -17.390  1.00 41.56    -0.021 C 
ATOM      6  HG2 MET A 624      15.733   1.206 -17.710  1.00  0.00     0.049 H 
ATOM      7  HG1 MET A 624      14.794   1.095 -16.284  1.00  0.00     0.049 H 
BRANCH   5   8
ATOM      8  SD  MET A 624      13.594   2.296 -18.006  1.00 46.36    -0.173 SA
BRANCH   8   9
ATOM      9  CE  MET A 624      14.669   3.150 -19.156  1.00 43.21    -0.035 C 
ATOM     10  HE3 MET A 624      14.559   4.259 -19.176  1.00  0.00     0.041 H 
ATOM     11  HE1 MET A 624      14.427   2.631 -20.113  1.00  0.00     0.041 H 
ATOM     12  HE2 MET A 624      15.749   3.160 -18.879  1.00  0.00     0.041 H 
ENDBRANCH   8   9
ENDBRANCH   5   8
ENDBRANCH   2   5
ENDBRANCH   1   2
END_RES MET A 624
BEGIN_RES LEU A 625
REMARK  4 active torsions:
REMARK  status: ('A' for Active; 'I' for Inactive)
REMARK    5  A    between atoms: CA   and  CB  
REMARK    6  A    between atoms: CB   and  CG  
REMARK    7  A    between atoms: CG   and  CD1 
REMARK    8  A    between atoms: CG   and  CD2 
ROOT
ATOM     13  CA  LEU A 625      17.135  -3.624 -16.776  1.00 49.20     0.089 C 
ENDROOT
BRANCH  13  14
ATOM     14  CB  LEU A 625      17.051  -5.150 -16.753  1.00 47.95    -0.035 C 
ATOM     15  HB2 LEU A 625      16.552  -5.506 -17.684  1.00  0.00     0.037 H 
ATOM     16  HB1 LEU A 625      18.072  -5.578 -16.888  1.00  0.00     0.037 H 
BRANCH  14  17
ATOM     17  CG  LEU A 625      16.386  -5.799 -15.543  1.00 41.83    -0.059 C 
ATOM     18  HG  LEU A 625      15.660  -5.076 -15.101  1.00  0.00     0.038 H 
BRANCH  17  19
ATOM     19  CD1 LEU A 625      15.636  -7.032 -15.993  1.00 45.22    -0.073 C 
ATOM     20 3HD1 LEU A 625      16.126  -7.534 -16.860  1.00  0.00     0.028 H 
ATOM     21 2HD1 LEU A 625      15.718  -7.869 -15.260  1.00  0.00     0.028 H 
ATOM     22 1HD1 LEU A 625      14.576  -6.757 -16.205  1.00  0.00     0.028 H 
ENDBRANCH  17  19
BRANCH  17  23
ATOM     23  CD2 LEU A 625      17.429  -6.146 -14.497  1.00 48.58    -0.073 C 
ATOM     24 1HD2 LEU A 625      18.391  -6.424 -14.988  1.00  0.00     0.028 H 
ATOM     25 3HD2 LEU A 625      17.562  -5.326 -13.753  1.00  0.00     0.028 H 
ATOM     26 2HD2 LEU A 625      17.072  -6.941 -13.801  1.00  0.00     0.028 H 
ENDBRANCH  17  23
ENDBRANCH  14  17
ENDBRANCH  13  14
END_RES LEU A 625
BEGIN_RES CYS A 673
REMARK  1 active torsions:
REMARK  status: ('A' for Active; 'I' for Inactive)
REMARK    9  A    between atoms: CA   and  CB  
ROOT
ATOM     27  CA  CYS A 673       6.053  10.339  -6.366  1.00 37.53     0.098 C 
ENDROOT
BRANCH  27  28
ATOM     28  CB  CYS A 673       6.430   9.481  -5.160  1.00 34.59     0.013 C 
ATOM     29  SG  CYS A 673       5.024   8.521  -4.528  1.00 37.22    -0.095 SA
ATOM     30  HB1 CYS A 673       7.297   8.820  -5.393  1.00  0.00     0.053 H 
ATOM     31  HB2 CYS A 673       6.889  10.099  -4.354  1.00  0.00     0.053 H 
ENDBRANCH  27  28
END_RES CYS A 673
ENDMDL
MODEL 8
REMARK VINA RESULT:    -7.996      4.412      8.668
REMARK INTER + INTRA:         -10.978
REMARK INTER:                 -11.509
REMARK INTRA:                   0.531
REMARK UNBOUND:                 0.290
REMARK SMILES CCN(CC)CCNC(=O)c1c(C)[nH]c(/C=C2\C(=O)Nc3ccc(F)cc32)c1C
REMARK SMILES IDX 7 1 8 2 9 3 10 4 11 6 15 7 14 8 28 9 12 10 29 12 13 13 16 14
REMARK SMILES IDX 24 15 26 16 23 17 27 18 22 19 17 20 21 21 18 22 20 23 19 24
REMARK SMILES IDX 25 25 6 27 3 28 2 29 1 30 4 31 5 32
REMARK H PARENT 8 5 14 11 20 26
ROOT
ATOM      1  C   UNL     1      15.929  -1.809  -7.609  1.00  0.00     0.131 C 
ENDROOT
BRANCH   1   2
ATOM      2  N   UNL     1      15.470  -0.432  -7.612  1.00  0.00    -0.351 N 
ATOM      3  C   UNL     1      16.079   0.545  -6.855  1.00  0.00     0.253 C 
ATOM      4  O   UNL     1      17.038   0.321  -6.125  1.00  0.00    -0.269 OA
ATOM      5  H   UNL     1      14.846  -0.131  -8.347  1.00  0.00     0.163 HD
BRANCH   3   6
ATOM      6  C   UNL     1      15.515   1.887  -7.045  1.00  0.00     0.063 A 
ATOM      7  C   UNL     1      14.123   3.683  -7.366  1.00  0.00     0.043 A 
ATOM      8  N   UNL     1      15.425   4.106  -7.291  1.00  0.00    -0.358 N 
ATOM      9  C   UNL     1      14.139   2.299  -7.185  1.00  0.00    -0.013 A 
ATOM     10  C   UNL     1      16.272   3.047  -7.090  1.00  0.00     0.025 A 
ATOM     11  H   UNL     1      15.734   5.072  -7.360  1.00  0.00     0.166 HD
ATOM     12  C   UNL     1      12.941   1.411  -7.112  1.00  0.00     0.047 C 
ATOM     13  C   UNL     1      17.741   3.251  -6.962  1.00  0.00     0.065 C 
BRANCH   7  14
ATOM     14  C   UNL     1      13.038   4.584  -7.575  1.00  0.00     0.041 C 
ATOM     15  C   UNL     1       9.548   7.401  -8.241  1.00  0.00     0.123 A 
ATOM     16  C   UNL     1      10.501   6.384  -8.160  1.00  0.00     0.050 A 
ATOM     17  C   UNL     1       9.746   8.652  -7.638  1.00  0.00     0.041 A 
ATOM     18  C   UNL     1      11.666   6.647  -7.459  1.00  0.00     0.014 A 
ATOM     19  C   UNL     1      10.920   8.914  -6.932  1.00  0.00     0.030 A 
ATOM     20  C   UNL     1      12.875   5.851  -7.158  1.00  0.00     0.051 C 
ATOM     21  C   UNL     1      11.854   7.899  -6.860  1.00  0.00     0.049 A 
ATOM     22  C   UNL     1      13.771   6.754  -6.341  1.00  0.00     0.256 C 
ATOM     23  N   UNL     1      13.081   7.947  -6.213  1.00  0.00    -0.321 N 
ATOM     24  O   UNL     1      14.872   6.513  -5.884  1.00  0.00    -0.269 OA
ATOM     25  F   UNL     1       8.411   7.176  -8.913  1.00  0.00    -0.207 F 
ATOM     26  H   UNL     1      13.453   8.738  -5.707  1.00  0.00     0.170 HD
ENDBRANCH   7  14
ENDBRANCH   3   6
ENDBRANCH   1   2
BRANCH   1  27
ATOM     27  C   UNL     1      16.775  -2.161  -8.849  1.00  0.00     0.105 C 
BRANCH  27  28
ATOM     28  N   UNL     1      16.705  -1.111  -9.893  1.00  0.00    -0.302 NA
BRANCH  28  29
ATOM     29  C   UNL     1      16.427  -1.709 -11.213  1.00  0.00     0.081 C 
ATOM     30  C   UNL     1      17.117  -3.059 -11.383  1.00  0.00     0.021 C 
ENDBRANCH  28  29
BRANCH  28  31
ATOM     31  C   UNL     1      17.961  -0.335  -9.921  1.00  0.00     0.081 C 
ATOM     32  C   UNL     1      17.706   1.163 -10.056  1.00  0.00     0.021 C 
ENDBRANCH  28  31
ENDBRANCH  27  28
ENDBRANCH   1  27
TORSDOF 7
BEGIN_RES MET A 624
REMARK  4 active torsions:
REMARK  status: ('A' for Active; 'I' for Inactive)
REMARK    1  A    between atoms: CA   and  CB  
REMARK    2  A    between atoms: CB   and  CG  
REMARK    3  A    between atoms: CG   and  SD  
REMARK    4  A    between atoms: SD   and  CE  
ROOT
ATOM      1  CA  MET A 624      14.156  -1.311 -16.529  1.00 37.55     0.090 C 
ENDROOT
BRANCH   1   2
ATOM      2  CB  MET A 624      14.290  -0.416 -17.759  1.00 35.24    -0.030 C 
ATOM      3  HB2 MET A 624      14.737  -0.971 -18.617  1.00  0.00     0.037 H 
ATOM      4  HB1 MET A 624      13.293  -0.183 -18.200  1.00  0.00     0.037 H 
BRANCH   2   5
ATOM      5  CG  MET A 624      15.070   0.854 -17.458  1.00 41.56    -0.021 C 
ATOM      6  HG2 MET A 624      15.993   0.892 -18.081  1.00  0.00     0.049 H 
ATOM      7  HG1 MET A 624      15.521   0.792 -16.440  1.00  0.00     0.049 H 
BRANCH   5   8
ATOM      8  SD  MET A 624      14.147   2.389 -17.629  1.00 46.36    -0.173 SA
BRANCH   8   9
ATOM      9  CE  MET A 624      14.718   2.969 -19.224  1.00 43.21    -0.035 C 
ATOM     10  HE3 MET A 624      14.581   2.254 -20.068  1.00  0.00     0.041 H 
ATOM     11  HE1 MET A 624      15.776   3.239 -18.996  1.00  0.00     0.041 H 
ATOM     12  HE2 MET A 624      14.107   3.783 -19.681  1.00  0.00     0.041 H 
ENDBRANCH   8   9
ENDBRANCH   5   8
ENDBRANCH   2   5
ENDBRANCH   1   2
END_RES MET A 624
BEGIN_RES LEU A 625
REMARK  4 active torsions:
REMARK  status: ('A' for Active; 'I' for Inactive)
REMARK    5  A    between atoms: CA   and  CB  
REMARK    6  A    between atoms: CB   and  CG  
REMARK    7  A    between atoms: CG   and  CD1 
REMARK    8  A    between atoms: CG   and  CD2 
ROOT
ATOM     13  CA  LEU A 625      17.135  -3.624 -16.776  1.00 49.20     0.089 C 
ENDROOT
BRANCH  13  14
ATOM     14  CB  LEU A 625      17.051  -5.150 -16.753  1.00 47.95    -0.035 C 
ATOM     15  HB2 LEU A 625      16.551  -5.506 -17.684  1.00  0.00     0.037 H 
ATOM     16  HB1 LEU A 625      18.072  -5.578 -16.888  1.00  0.00     0.037 H 
BRANCH  14  17
ATOM     17  CG  LEU A 625      16.387  -5.799 -15.543  1.00 41.83    -0.059 C 
ATOM     18  HG  LEU A 625      15.658  -5.078 -15.103  1.00  0.00     0.038 H 
BRANCH  17  19
ATOM     19  CD1 LEU A 625      15.642  -7.036 -15.991  1.00 45.22    -0.073 C 
ATOM     20 3HD1 LEU A 625      15.061  -7.505 -15.162  1.00  0.00     0.028 H 
ATOM     21 2HD1 LEU A 625      14.786  -6.794 -16.665  1.00  0.00     0.028 H 
ATOM     22 1HD1 LEU A 625      16.363  -7.746 -16.459  1.00  0.00     0.028 H 
ENDBRANCH  17  19
BRANCH  17  23
ATOM     23  CD2 LEU A 625      17.429  -6.141 -14.494  1.00 48.58    -0.073 C 
ATOM     24 1HD2 LEU A 625      18.331  -5.498 -14.624  1.00  0.00     0.028 H 
ATOM     25 3HD2 LEU A 625      17.016  -6.076 -13.460  1.00  0.00     0.028 H 
ATOM     26 2HD2 LEU A 625      17.686  -7.225 -14.500  1.00  0.00     0.028 H 
ENDBRANCH  17  23
ENDBRANCH  14  17
ENDBRANCH  13  14
END_RES LEU A 625
BEGIN_RES CYS A 673
REMARK  1 active torsions:
REMARK  status: ('A' for Active; 'I' for Inactive)
REMARK    9  A    between atoms: CA   and  CB  
ROOT
ATOM     27  CA  CYS A 673       6.053  10.339  -6.366  1.00 37.53     0.098 C 
ENDROOT
BRANCH  27  28
ATOM     28  CB  CYS A 673       6.430   9.481  -5.160  1.00 34.59     0.013 C 
ATOM     29  SG  CYS A 673       5.024   8.521  -4.528  1.00 37.22    -0.095 SA
ATOM     30  HB1 CYS A 673       7.297   8.819  -5.393  1.00  0.00     0.053 H 
ATOM     31  HB2 CYS A 673       6.890  10.099  -4.355  1.00  0.00     0.053 H 
ENDBRANCH  27  28
END_RES CYS A 673
ENDMDL
MODEL 9
REMARK VINA RESULT:    -7.996      4.778      8.261
REMARK INTER + INTRA:         -10.978
REMARK INTER:                 -11.268
REMARK INTRA:                   0.290
REMARK UNBOUND:                 0.290
REMARK SMILES CCN(CC)CCNC(=O)c1c(C)[nH]c(/C=C2\C(=O)Nc3ccc(F)cc32)c1C
REMARK SMILES IDX 7 1 8 2 9 3 10 4 11 6 15 7 14 8 28 9 12 10 29 12 13 13 16 14
REMARK SMILES IDX 24 15 26 16 23 17 27 18 22 19 17 20 21 21 18 22 20 23 19 24
REMARK SMILES IDX 25 25 6 27 3 28 2 29 1 30 4 31 5 32
REMARK H PARENT 8 5 14 11 20 26
ROOT
ATOM      1  C   UNL     1      19.010   0.848  -7.223  1.00  0.00     0.131 C 
ENDROOT
BRANCH   1   2
ATOM      2  N   UNL     1      17.732   1.509  -7.411  1.00  0.00    -0.351 N 
ATOM      3  C   UNL     1      16.847   1.702  -6.373  1.00  0.00     0.253 C 
ATOM      4  O   UNL     1      17.072   1.325  -5.228  1.00  0.00    -0.269 OA
ATOM      5  H   UNL     1      17.581   2.039  -8.257  1.00  0.00     0.163 HD
BRANCH   3   6
ATOM      6  C   UNL     1      15.641   2.449  -6.747  1.00  0.00     0.063 A 
ATOM      7  C   UNL     1      14.065   4.076  -7.114  1.00  0.00     0.043 A 
ATOM      8  N   UNL     1      13.587   2.858  -7.526  1.00  0.00    -0.358 N 
ATOM      9  C   UNL     1      15.363   3.862  -6.648  1.00  0.00    -0.013 A 
ATOM     10  C   UNL     1      14.519   1.874  -7.323  1.00  0.00     0.025 A 
ATOM     11  H   UNL     1      12.673   2.696  -7.939  1.00  0.00     0.166 HD
ATOM     12  C   UNL     1      16.307   4.915  -6.170  1.00  0.00     0.047 C 
ATOM     13  C   UNL     1      14.241   0.462  -7.701  1.00  0.00     0.065 C 
BRANCH   7  14
ATOM     14  C   UNL     1      13.294   5.272  -7.211  1.00  0.00     0.041 C 
ATOM     15  C   UNL     1      10.894   9.106  -7.530  1.00  0.00     0.123 A 
ATOM     16  C   UNL     1      11.802   8.060  -7.355  1.00  0.00     0.050 A 
ATOM     17  C   UNL     1       9.593   8.886  -8.005  1.00  0.00     0.041 A 
ATOM     18  C   UNL     1      11.377   6.779  -7.666  1.00  0.00     0.014 A 
ATOM     19  C   UNL     1       9.168   7.595  -8.318  1.00  0.00     0.030 A 
ATOM     20  C   UNL     1      12.025   5.450  -7.616  1.00  0.00     0.051 C 
ATOM     21  C   UNL     1      10.076   6.570  -8.140  1.00  0.00     0.049 A 
ATOM     22  C   UNL     1      10.985   4.465  -8.097  1.00  0.00     0.256 C 
ATOM     23  N   UNL     1       9.861   5.221  -8.387  1.00  0.00    -0.321 N 
ATOM     24  O   UNL     1      11.082   3.258  -8.210  1.00  0.00    -0.269 OA
ATOM     25  F   UNL     1      11.277  10.356  -7.237  1.00  0.00    -0.207 F 
ATOM     26  H   UNL     1       9.006   4.811  -8.732  1.00  0.00     0.170 HD
ENDBRANCH   7  14
ENDBRANCH   3   6
ENDBRANCH   1   2
BRANCH   1  27
ATOM     27  C   UNL     1      19.210  -0.351  -8.172  1.00  0.00     0.105 C 
BRANCH  27  28
ATOM     28  N   UNL     1      17.924  -0.975  -8.566  1.00  0.00    -0.302 NA
BRANCH  28  29
ATOM     29  C   UNL     1      17.773  -2.298  -7.931  1.00  0.00     0.081 C 
ATOM     30  C   UNL     1      16.323  -2.584  -7.551  1.00  0.00     0.021 C 
ENDBRANCH  28  29
BRANCH  28  31
ATOM     31  C   UNL     1      17.840  -1.084 -10.036  1.00  0.00     0.081 C 
ATOM     32  C   UNL     1      16.656  -0.305 -10.601  1.00  0.00     0.021 C 
ENDBRANCH  28  31
ENDBRANCH  27  28
ENDBRANCH   1  27
TORSDOF 7
BEGIN_RES MET A 624
REMARK  4 active torsions:
REMARK  status: ('A' for Active; 'I' for Inactive)
REMARK    1  A    between atoms: CA   and  CB  
REMARK    2  A    between atoms: CB   and  CG  
REMARK    3  A    between atoms: CG   and  SD  
REMARK    4  A    between atoms: SD   and  CE  
ROOT
ATOM      1  CA  MET A 624      14.156  -1.311 -16.529  1.00 37.55     0.090 C 
ENDROOT
BRANCH   1   2
ATOM      2  CB  MET A 624      14.290  -0.416 -17.759  1.00 35.24    -0.030 C 
ATOM      3  HB2 MET A 624      15.003  -0.850 -18.499  1.00  0.00     0.037 H 
ATOM      4  HB1 MET A 624      13.362  -0.435 -18.376  1.00  0.00     0.037 H 
BRANCH   2   5
ATOM      5  CG  MET A 624      14.677   1.007 -17.389  1.00 41.56    -0.021 C 
ATOM      6  HG2 MET A 624      15.728   1.211 -17.704  1.00  0.00     0.049 H 
ATOM      7  HG1 MET A 624      14.782   1.098 -16.283  1.00  0.00     0.049 H 
BRANCH   5   8
ATOM      8  SD  MET A 624      13.586   2.294 -18.013  1.00 46.36    -0.173 SA
BRANCH   8   9
ATOM      9  CE  MET A 624      14.662   3.143 -19.165  1.00 43.21    -0.035 C 
ATOM     10  HE3 MET A 624      15.190   2.487 -19.896  1.00  0.00     0.041 H 
ATOM     11  HE1 MET A 624      15.324   3.713 -18.472  1.00  0.00     0.041 H 
ATOM     12  HE2 MET A 624      14.141   3.757 -19.938  1.00  0.00     0.041 H 
ENDBRANCH   8   9
ENDBRANCH   5   8
ENDBRANCH   2   5
ENDBRANCH   1   2
END_RES MET A 624
BEGIN_RES LEU A 625
REMARK  4 active torsions:
REMARK  status: ('A' for Active; 'I' for Inactive)
REMARK    5  A    between atoms: CA   and  CB  
REMARK    6  A    between atoms: CB   and  CG  
REMARK    7  A    between atoms: CG   and  CD1 
REMARK    8  A    between atoms: CG   and  CD2 
ROOT
ATOM     13  CA  LEU A 625      17.135  -3.624 -16.776  1.00 49.20     0.089 C 
ENDROOT
BRANCH  13  14
ATOM     14  CB  LEU A 625      17.051  -5.150 -16.753  1.00 47.95    -0.035 C 
ATOM     15  HB2 LEU A 625      16.557  -5.507 -17.687  1.00  0.00     0.037 H 
ATOM     16  HB1 LEU A 625      18.073  -5.578 -16.881  1.00  0.00     0.037 H 
BRANCH  14  17
ATOM     17  CG  LEU A 625      16.379  -5.798 -15.547  1.00 41.83    -0.059 C 
ATOM     18  HG  LEU A 625      15.650  -5.076 -15.110  1.00  0.00     0.038 H 
BRANCH  17  19
ATOM     19  CD1 LEU A 625      15.632  -7.032 -16.001  1.00 45.22    -0.073 C 
ATOM     20 3HD1 LEU A 625      15.406  -7.725 -15.156  1.00  0.00     0.028 H 
ATOM     21 2HD1 LEU A 625      14.582  -6.805 -16.302  1.00  0.00     0.028 H 
ATOM     22 1HD1 LEU A 625      16.209  -7.529 -16.815  1.00  0.00     0.028 H 
ENDBRANCH  17  19
BRANCH  17  23
ATOM     23  CD2 LEU A 625      17.415  -6.145 -14.494  1.00 48.58    -0.073 C 
ATOM     24 1HD2 LEU A 625      17.349  -5.432 -13.639  1.00  0.00     0.028 H 
ATOM     25 3HD2 LEU A 625      17.330  -7.206 -14.159  1.00  0.00     0.028 H 
ATOM     26 2HD2 LEU A 625      18.444  -6.190 -14.921  1.00  0.00     0.028 H 
ENDBRANCH  17  23
ENDBRANCH  14  17
ENDBRANCH  13  14
END_RES LEU A 625
BEGIN_RES CYS A 673
REMARK  1 active torsions:
REMARK  status: ('A' for Active; 'I' for Inactive)
REMARK    9  A    between atoms: CA   and  CB  
ROOT
ATOM     27  CA  CYS A 673       6.053  10.339  -6.366  1.00 37.53     0.098 C 
ENDROOT
BRANCH  27  28
ATOM     28  CB  CYS A 673       6.430   9.481  -5.160  1.00 34.59     0.013 C 
ATOM     29  SG  CYS A 673       5.023   8.522  -4.527  1.00 37.22    -0.095 SA
ATOM     30  HB1 CYS A 673       7.296   8.819  -5.393  1.00  0.00     0.053 H 
ATOM     31  HB2 CYS A 673       6.890  10.099  -4.355  1.00  0.00     0.053 H 
ENDBRANCH  27  28
END_RES CYS A 673
ENDMDL
