MODEL 1
REMARK VINA RESULT:    -5.874      0.000      0.000
REMARK INTER + INTRA:          -4.722
REMARK INTER:                  -5.874
REMARK INTRA:                   1.152
REMARK UNBOUND:                 1.152
REMARK SMILES Cn1c(=O)c2c(ncn2C)n(C)c1=O
REMARK SMILES IDX 4 1 14 2 11 3 9 4 2 5 7 6 5 7 6 8 3 9 13 10 8 11 12 12 10 13
REMARK SMILES IDX 1 14
REMARK H PARENT
ROOT
ATOM      1  O   UNL     1       9.156   3.311  -9.061  1.00  0.00    -0.267 OA
ATOM      2  O   UNL     1      12.111  -0.004  -7.762  1.00  0.00    -0.247 OA
ATOM      3  N   UNL     1      12.651   2.175  -7.257  1.00  0.00    -0.279 N 
ATOM      4  N   UNL     1      11.085   5.235  -7.819  1.00  0.00    -0.328 N 
ATOM      5  N   UNL     1      10.627   1.630  -8.418  1.00  0.00    -0.261 N 
ATOM      6  N   UNL     1      12.971   4.560  -6.852  1.00  0.00    -0.218 NA
ATOM      7  C   UNL     1      11.112   3.875  -7.935  1.00  0.00     0.152 A 
ATOM      8  C   UNL     1      12.274   3.494  -7.336  1.00  0.00     0.167 A 
ATOM      9  C   UNL     1      10.201   2.957  -8.523  1.00  0.00     0.282 C 
ATOM     10  C   UNL     1      11.822   1.196  -7.805  1.00  0.00     0.332 C 
ATOM     11  C   UNL     1      12.227   5.604  -7.158  1.00  0.00     0.202 A 
ATOM     12  C   UNL     1      13.897   1.811  -6.610  1.00  0.00     0.157 C 
ATOM     13  C   UNL     1      10.056   6.122  -8.297  1.00  0.00     0.151 C 
ATOM     14  C   UNL     1       9.782   0.595  -8.980  1.00  0.00     0.159 C 
ENDROOT
TORSDOF 0
BEGIN_RES MET A 624
REMARK  4 active torsions:
REMARK  status: ('A' for Active; 'I' for Inactive)
REMARK    1  A    between atoms: CA   and  CB  
REMARK    2  A    between atoms: CB   and  CG  
REMARK    3  A    between atoms: CG   and  SD  
REMARK    4  A    between atoms: SD   and  CE  
ROOT
ATOM      1  CA  MET A 624      14.156  -1.311 -16.529  1.00 37.55     0.090 C 
ENDROOT
BRANCH   1   2
ATOM      2  CB  MET A 624      14.290  -0.416 -17.759  1.00 35.24    -0.030 C 
ATOM      3  HB2 MET A 624      15.003  -0.849 -18.499  1.00  0.00     0.037 H 
ATOM      4  HB1 MET A 624      13.362  -0.436 -18.376  1.00  0.00     0.037 H 
BRANCH   2   5
ATOM      5  CG  MET A 624      14.676   1.007 -17.389  1.00 41.56    -0.021 C 
ATOM      6  HG2 MET A 624      15.730   1.209 -17.695  1.00  0.00     0.049 H 
ATOM      7  HG1 MET A 624      14.771   1.101 -16.282  1.00  0.00     0.049 H 
BRANCH   5   8
ATOM      8  SD  MET A 624      13.593   2.294 -18.026  1.00 46.36    -0.173 SA
BRANCH   8   9
ATOM      9  CE  MET A 624      14.688   3.156 -19.150  1.00 43.21    -0.035 C 
ATOM     10  HE3 MET A 624      14.311   4.137 -19.523  1.00  0.00     0.041 H 
ATOM     11  HE1 MET A 624      14.854   2.381 -19.935  1.00  0.00     0.041 H 
ATOM     12  HE2 MET A 624      15.614   3.572 -18.688  1.00  0.00     0.041 H 
ENDBRANCH   8   9
ENDBRANCH   5   8
ENDBRANCH   2   5
ENDBRANCH   1   2
END_RES MET A 624
BEGIN_RES LEU A 625
REMARK  4 active torsions:
REMARK  status: ('A' for Active; 'I' for Inactive)
REMARK    5  A    between atoms: CA   and  CB  
REMARK    6  A    between atoms: CB   and  CG  
REMARK    7  A    between atoms: CG   and  CD1 
REMARK    8  A    between atoms: CG   and  CD2 
ROOT
ATOM     13  CA  LEU A 625      17.135  -3.624 -16.776  1.00 49.20     0.089 C 
ENDROOT
BRANCH  13  14
ATOM     14  CB  LEU A 625      17.051  -5.150 -16.753  1.00 47.95    -0.035 C 
ATOM     15  HB2 LEU A 625      16.545  -5.506 -17.680  1.00  0.00     0.037 H 
ATOM     16  HB1 LEU A 625      18.071  -5.578 -16.895  1.00  0.00     0.037 H 
BRANCH  14  17
ATOM     17  CG  LEU A 625      16.396  -5.799 -15.538  1.00 41.83    -0.059 C 
ATOM     18  HG  LEU A 625      15.681  -5.073 -15.084  1.00  0.00     0.038 H 
BRANCH  17  19
ATOM     19  CD1 LEU A 625      15.629  -7.024 -15.985  1.00 45.22    -0.073 C 
ATOM     20 3HD1 LEU A 625      16.253  -7.713 -16.602  1.00  0.00     0.028 H 
ATOM     21 2HD1 LEU A 625      15.414  -7.721 -15.141  1.00  0.00     0.028 H 
ATOM     22 1HD1 LEU A 625      14.702  -6.701 -16.515  1.00  0.00     0.028 H 
ENDBRANCH  17  19
BRANCH  17  23
ATOM     23  CD2 LEU A 625      17.447  -6.161 -14.506  1.00 48.58    -0.073 C 
ATOM     24 1HD2 LEU A 625      17.667  -5.282 -13.855  1.00  0.00     0.028 H 
ATOM     25 3HD2 LEU A 625      17.156  -7.058 -13.911  1.00  0.00     0.028 H 
ATOM     26 2HD2 LEU A 625      18.370  -6.570 -14.978  1.00  0.00     0.028 H 
ENDBRANCH  17  23
ENDBRANCH  14  17
ENDBRANCH  13  14
END_RES LEU A 625
BEGIN_RES CYS A 673
REMARK  1 active torsions:
REMARK  status: ('A' for Active; 'I' for Inactive)
REMARK    9  A    between atoms: CA   and  CB  
ROOT
ATOM     27  CA  CYS A 673       6.053  10.339  -6.366  1.00 37.53     0.098 C 
ENDROOT
BRANCH  27  28
ATOM     28  CB  CYS A 673       6.430   9.481  -5.160  1.00 34.59     0.013 C 
ATOM     29  SG  CYS A 673       5.021   8.532  -4.519  1.00 37.22    -0.095 SA
ATOM     30  HB1 CYS A 673       7.291   8.813  -5.395  1.00  0.00     0.053 H 
ATOM     31  HB2 CYS A 673       6.897  10.098  -4.358  1.00  0.00     0.053 H 
ENDBRANCH  27  28
END_RES CYS A 673
ENDMDL
MODEL 2
REMARK VINA RESULT:    -5.870      1.273      2.437
REMARK INTER + INTRA:          -4.719
REMARK INTER:                  -5.862
REMARK INTRA:                   1.143
REMARK UNBOUND:                 1.152
REMARK SMILES Cn1c(=O)c2c(ncn2C)n(C)c1=O
REMARK SMILES IDX 4 1 14 2 11 3 9 4 2 5 7 6 5 7 6 8 3 9 13 10 8 11 12 12 10 13
REMARK SMILES IDX 1 14
REMARK H PARENT
ROOT
ATOM      1  O   UNL     1      13.341   4.265  -7.343  1.00  0.00    -0.267 OA
ATOM      2  O   UNL     1      12.000  -0.157  -7.598  1.00  0.00    -0.247 OA
ATOM      3  N   UNL     1      10.422   1.469  -7.996  1.00  0.00    -0.279 N 
ATOM      4  N   UNL     1      10.507   4.951  -8.026  1.00  0.00    -0.328 N 
ATOM      5  N   UNL     1      12.688   2.037  -7.466  1.00  0.00    -0.261 N 
ATOM      6  N   UNL     1       8.962   3.388  -8.370  1.00  0.00    -0.218 NA
ATOM      7  C   UNL     1      11.132   3.749  -7.860  1.00  0.00     0.152 A 
ATOM      8  C   UNL     1      10.163   2.816  -8.077  1.00  0.00     0.167 A 
ATOM      9  C   UNL     1      12.475   3.416  -7.537  1.00  0.00     0.282 C 
ATOM     10  C   UNL     1      11.712   1.041  -7.683  1.00  0.00     0.332 C 
ATOM     11  C   UNL     1       9.198   4.684  -8.333  1.00  0.00     0.202 A 
ATOM     12  C   UNL     1       9.361   0.509  -8.233  1.00  0.00     0.157 C 
ATOM     13  C   UNL     1      11.102   6.257  -7.904  1.00  0.00     0.151 C 
ATOM     14  C   UNL     1      14.021   1.568  -7.143  1.00  0.00     0.159 C 
ENDROOT
TORSDOF 0
BEGIN_RES MET A 624
REMARK  4 active torsions:
REMARK  status: ('A' for Active; 'I' for Inactive)
REMARK    1  A    between atoms: CA   and  CB  
REMARK    2  A    between atoms: CB   and  CG  
REMARK    3  A    between atoms: CG   and  SD  
REMARK    4  A    between atoms: SD   and  CE  
ROOT
ATOM      1  CA  MET A 624      14.156  -1.311 -16.529  1.00 37.55     0.090 C 
ENDROOT
BRANCH   1   2
ATOM      2  CB  MET A 624      14.290  -0.416 -17.759  1.00 35.24    -0.030 C 
ATOM      3  HB2 MET A 624      15.001  -0.851 -18.500  1.00  0.00     0.037 H 
ATOM      4  HB1 MET A 624      13.361  -0.433 -18.374  1.00  0.00     0.037 H 
BRANCH   2   5
ATOM      5  CG  MET A 624      14.681   1.006 -17.389  1.00 41.56    -0.021 C 
ATOM      6  HG2 MET A 624      15.734   1.205 -17.697  1.00  0.00     0.049 H 
ATOM      7  HG1 MET A 624      14.777   1.099 -16.283  1.00  0.00     0.049 H 
BRANCH   5   8
ATOM      8  SD  MET A 624      13.600   2.296 -18.024  1.00 46.36    -0.173 SA
BRANCH   8   9
ATOM      9  CE  MET A 624      14.702   3.170 -19.132  1.00 43.21    -0.035 C 
ATOM     10  HE3 MET A 624      14.369   3.217 -20.195  1.00  0.00     0.041 H 
ATOM     11  HE1 MET A 624      15.663   2.631 -18.959  1.00  0.00     0.041 H 
ATOM     12  HE2 MET A 624      14.744   4.275 -18.990  1.00  0.00     0.041 H 
ENDBRANCH   8   9
ENDBRANCH   5   8
ENDBRANCH   2   5
ENDBRANCH   1   2
END_RES MET A 624
BEGIN_RES LEU A 625
REMARK  4 active torsions:
REMARK  status: ('A' for Active; 'I' for Inactive)
REMARK    5  A    between atoms: CA   and  CB  
REMARK    6  A    between atoms: CB   and  CG  
REMARK    7  A    between atoms: CG   and  CD1 
REMARK    8  A    between atoms: CG   and  CD2 
ROOT
ATOM     13  CA  LEU A 625      17.135  -3.624 -16.776  1.00 49.20     0.089 C 
ENDROOT
BRANCH  13  14
ATOM     14  CB  LEU A 625      17.051  -5.150 -16.753  1.00 47.95    -0.035 C 
ATOM     15  HB2 LEU A 625      16.543  -5.506 -17.680  1.00  0.00     0.037 H 
ATOM     16  HB1 LEU A 625      18.070  -5.578 -16.897  1.00  0.00     0.037 H 
BRANCH  14  17
ATOM     17  CG  LEU A 625      16.398  -5.799 -15.537  1.00 41.83    -0.059 C 
ATOM     18  HG  LEU A 625      15.683  -5.073 -15.082  1.00  0.00     0.038 H 
BRANCH  17  19
ATOM     19  CD1 LEU A 625      15.631  -7.025 -15.983  1.00 45.22    -0.073 C 
ATOM     20 3HD1 LEU A 625      15.456  -7.742 -15.147  1.00  0.00     0.028 H 
ATOM     21 2HD1 LEU A 625      14.566  -6.796 -16.219  1.00  0.00     0.028 H 
ATOM     22 1HD1 LEU A 625      16.164  -7.495 -16.842  1.00  0.00     0.028 H 
ENDBRANCH  17  19
BRANCH  17  23
ATOM     23  CD2 LEU A 625      17.451  -6.160 -14.507  1.00 48.58    -0.073 C 
ATOM     24 1HD2 LEU A 625      18.046  -7.036 -14.855  1.00  0.00     0.028 H 
ATOM     25 3HD2 LEU A 625      18.100  -5.289 -14.252  1.00  0.00     0.028 H 
ATOM     26 2HD2 LEU A 625      17.006  -6.332 -13.499  1.00  0.00     0.028 H 
ENDBRANCH  17  23
ENDBRANCH  14  17
ENDBRANCH  13  14
END_RES LEU A 625
BEGIN_RES CYS A 673
REMARK  1 active torsions:
REMARK  status: ('A' for Active; 'I' for Inactive)
REMARK    9  A    between atoms: CA   and  CB  
ROOT
ATOM     27  CA  CYS A 673       6.053  10.339  -6.366  1.00 37.53     0.098 C 
ENDROOT
BRANCH  27  28
ATOM     28  CB  CYS A 673       6.430   9.481  -5.160  1.00 34.59     0.013 C 
ATOM     29  SG  CYS A 673       5.021   8.530  -4.520  1.00 37.22    -0.095 SA
ATOM     30  HB1 CYS A 673       7.292   8.814  -5.395  1.00  0.00     0.053 H 
ATOM     31  HB2 CYS A 673       6.896  10.098  -4.358  1.00  0.00     0.053 H 
ENDBRANCH  27  28
END_RES CYS A 673
ENDMDL
MODEL 3
REMARK VINA RESULT:    -5.774      1.021      2.726
REMARK INTER + INTRA:          -4.623
REMARK INTER:                  -5.771
REMARK INTRA:                   1.149
REMARK UNBOUND:                 1.152
REMARK SMILES Cn1c(=O)c2c(ncn2C)n(C)c1=O
REMARK SMILES IDX 4 1 14 2 11 3 9 4 2 5 7 6 5 7 6 8 3 9 13 10 8 11 12 12 10 13
REMARK SMILES IDX 1 14
REMARK H PARENT
ROOT
ATOM      1  O   UNL     1      12.554   0.082  -7.557  1.00  0.00    -0.267 OA
ATOM      2  O   UNL     1       8.315   1.784  -8.301  1.00  0.00    -0.247 OA
ATOM      3  N   UNL     1      10.041   3.279  -8.027  1.00  0.00    -0.279 N 
ATOM      4  N   UNL     1      13.457   2.935  -7.442  1.00  0.00    -0.328 N 
ATOM      5  N   UNL     1      10.416   0.916  -7.931  1.00  0.00    -0.261 N 
ATOM      6  N   UNL     1      12.046   4.634  -7.705  1.00  0.00    -0.218 NA
ATOM      7  C   UNL     1      12.225   2.384  -7.644  1.00  0.00     0.152 A 
ATOM      8  C   UNL     1      11.387   3.446  -7.801  1.00  0.00     0.167 A 
ATOM      9  C   UNL     1      11.789   1.032  -7.700  1.00  0.00     0.282 C 
ATOM     10  C   UNL     1       9.516   1.989  -8.099  1.00  0.00     0.332 C 
ATOM     11  C   UNL     1      13.301   4.295  -7.487  1.00  0.00     0.202 A 
ATOM     12  C   UNL     1       9.183   4.438  -8.188  1.00  0.00     0.157 C 
ATOM     13  C   UNL     1      14.693   2.228  -7.223  1.00  0.00     0.151 C 
ATOM     14  C   UNL     1       9.847  -0.415  -8.010  1.00  0.00     0.159 C 
ENDROOT
TORSDOF 0
BEGIN_RES MET A 624
REMARK  4 active torsions:
REMARK  status: ('A' for Active; 'I' for Inactive)
REMARK    1  A    between atoms: CA   and  CB  
REMARK    2  A    between atoms: CB   and  CG  
REMARK    3  A    between atoms: CG   and  SD  
REMARK    4  A    between atoms: SD   and  CE  
ROOT
ATOM      1  CA  MET A 624      14.156  -1.311 -16.529  1.00 37.55     0.090 C 
ENDROOT
BRANCH   1   2
ATOM      2  CB  MET A 624      14.290  -0.416 -17.759  1.00 35.24    -0.030 C 
ATOM      3  HB2 MET A 624      15.006  -0.848 -18.497  1.00  0.00     0.037 H 
ATOM      4  HB1 MET A 624      13.363  -0.438 -18.378  1.00  0.00     0.037 H 
BRANCH   2   5
ATOM      5  CG  MET A 624      14.672   1.008 -17.389  1.00 41.56    -0.021 C 
ATOM      6  HG2 MET A 624      15.719   1.219 -17.711  1.00  0.00     0.049 H 
ATOM      7  HG1 MET A 624      14.784   1.097 -16.283  1.00  0.00     0.049 H 
BRANCH   5   8
ATOM      8  SD  MET A 624      13.569   2.290 -18.001  1.00 46.36    -0.173 SA
BRANCH   8   9
ATOM      9  CE  MET A 624      14.636   3.158 -19.148  1.00 43.21    -0.035 C 
ATOM     10  HE3 MET A 624      15.259   2.507 -19.805  1.00  0.00     0.041 H 
ATOM     11  HE1 MET A 624      15.207   3.824 -18.459  1.00  0.00     0.041 H 
ATOM     12  HE2 MET A 624      14.113   3.677 -19.986  1.00  0.00     0.041 H 
ENDBRANCH   8   9
ENDBRANCH   5   8
ENDBRANCH   2   5
ENDBRANCH   1   2
END_RES MET A 624
BEGIN_RES LEU A 625
REMARK  4 active torsions:
REMARK  status: ('A' for Active; 'I' for Inactive)
REMARK    5  A    between atoms: CA   and  CB  
REMARK    6  A    between atoms: CB   and  CG  
REMARK    7  A    between atoms: CG   and  CD1 
REMARK    8  A    between atoms: CG   and  CD2 
ROOT
ATOM     13  CA  LEU A 625      17.135  -3.624 -16.776  1.00 49.20     0.089 C 
ENDROOT
BRANCH  13  14
ATOM     14  CB  LEU A 625      17.051  -5.150 -16.753  1.00 47.95    -0.035 C 
ATOM     15  HB2 LEU A 625      16.551  -5.506 -17.683  1.00  0.00     0.037 H 
ATOM     16  HB1 LEU A 625      18.072  -5.578 -16.889  1.00  0.00     0.037 H 
BRANCH  14  17
ATOM     17  CG  LEU A 625      16.388  -5.799 -15.542  1.00 41.83    -0.059 C 
ATOM     18  HG  LEU A 625      15.665  -5.075 -15.097  1.00  0.00     0.038 H 
BRANCH  17  19
ATOM     19  CD1 LEU A 625      15.633  -7.030 -15.992  1.00 45.22    -0.073 C 
ATOM     20 3HD1 LEU A 625      15.404  -7.719 -15.145  1.00  0.00     0.028 H 
ATOM     21 2HD1 LEU A 625      14.585  -6.798 -16.294  1.00  0.00     0.028 H 
ATOM     22 1HD1 LEU A 625      16.207  -7.533 -16.805  1.00  0.00     0.028 H 
ENDBRANCH  17  19
BRANCH  17  23
ATOM     23  CD2 LEU A 625      17.432  -6.150 -14.499  1.00 48.58    -0.073 C 
ATOM     24 1HD2 LEU A 625      17.812  -5.224 -14.007  1.00  0.00     0.028 H 
ATOM     25 3HD2 LEU A 625      17.047  -6.889 -13.757  1.00  0.00     0.028 H 
ATOM     26 2HD2 LEU A 625      18.259  -6.763 -14.927  1.00  0.00     0.028 H 
ENDBRANCH  17  23
ENDBRANCH  14  17
ENDBRANCH  13  14
END_RES LEU A 625
BEGIN_RES CYS A 673
REMARK  1 active torsions:
REMARK  status: ('A' for Active; 'I' for Inactive)
REMARK    9  A    between atoms: CA   and  CB  
ROOT
ATOM     27  CA  CYS A 673       6.053  10.339  -6.366  1.00 37.53     0.098 C 
ENDROOT
BRANCH  27  28
ATOM     28  CB  CYS A 673       6.430   9.481  -5.160  1.00 34.59     0.013 C 
ATOM     29  SG  CYS A 673       5.023   8.523  -4.526  1.00 37.22    -0.095 SA
ATOM     30  HB1 CYS A 673       7.296   8.818  -5.393  1.00  0.00     0.053 H 
ATOM     31  HB2 CYS A 673       6.891  10.099  -4.355  1.00  0.00     0.053 H 
ENDBRANCH  27  28
END_RES CYS A 673
ENDMDL
MODEL 4
REMARK VINA RESULT:    -5.746      1.465      2.939
REMARK INTER + INTRA:          -4.595
REMARK INTER:                  -5.739
REMARK INTRA:                   1.144
REMARK UNBOUND:                 1.152
REMARK SMILES Cn1c(=O)c2c(ncn2C)n(C)c1=O
REMARK SMILES IDX 4 1 14 2 11 3 9 4 2 5 7 6 5 7 6 8 3 9 13 10 8 11 12 12 10 13
REMARK SMILES IDX 1 14
REMARK H PARENT
ROOT
ATOM      1  O   UNL     1      11.863   4.869  -7.394  1.00  0.00    -0.267 OA
ATOM      2  O   UNL     1       8.370   1.955  -8.242  1.00  0.00    -0.247 OA
ATOM      3  N   UNL     1      10.465   1.059  -7.926  1.00  0.00    -0.279 N 
ATOM      4  N   UNL     1      13.596   2.431  -7.256  1.00  0.00    -0.328 N 
ATOM      5  N   UNL     1      10.094   3.423  -7.822  1.00  0.00    -0.261 N 
ATOM      6  N   UNL     1      12.780   0.383  -7.553  1.00  0.00    -0.218 NA
ATOM      7  C   UNL     1      12.259   2.579  -7.489  1.00  0.00     0.152 A 
ATOM      8  C   UNL     1      11.791   1.312  -7.666  1.00  0.00     0.167 A 
ATOM      9  C   UNL     1      11.431   3.732  -7.556  1.00  0.00     0.282 C 
ATOM     10  C   UNL     1       9.571   2.126  -8.011  1.00  0.00     0.332 C 
ATOM     11  C   UNL     1      13.866   1.088  -7.304  1.00  0.00     0.202 A 
ATOM     12  C   UNL     1      10.008  -0.306  -8.109  1.00  0.00     0.157 C 
ATOM     13  C   UNL     1      14.549   3.481  -7.005  1.00  0.00     0.151 C 
ATOM     14  C   UNL     1       9.146   4.516  -7.915  1.00  0.00     0.159 C 
ENDROOT
TORSDOF 0
BEGIN_RES MET A 624
REMARK  4 active torsions:
REMARK  status: ('A' for Active; 'I' for Inactive)
REMARK    1  A    between atoms: CA   and  CB  
REMARK    2  A    between atoms: CB   and  CG  
REMARK    3  A    between atoms: CG   and  SD  
REMARK    4  A    between atoms: SD   and  CE  
ROOT
ATOM      1  CA  MET A 624      14.156  -1.311 -16.529  1.00 37.55     0.090 C 
ENDROOT
BRANCH   1   2
ATOM      2  CB  MET A 624      14.290  -0.416 -17.759  1.00 35.24    -0.030 C 
ATOM      3  HB2 MET A 624      15.014  -0.842 -18.492  1.00  0.00     0.037 H 
ATOM      4  HB1 MET A 624      13.368  -0.447 -18.384  1.00  0.00     0.037 H 
BRANCH   2   5
ATOM      5  CG  MET A 624      14.657   1.012 -17.388  1.00 41.56    -0.021 C 
ATOM      6  HG2 MET A 624      15.702   1.233 -17.709  1.00  0.00     0.049 H 
ATOM      7  HG1 MET A 624      14.766   1.102 -16.282  1.00  0.00     0.049 H 
BRANCH   5   8
ATOM      8  SD  MET A 624      13.542   2.283 -18.001  1.00 46.36    -0.173 SA
BRANCH   8   9
ATOM      9  CE  MET A 624      14.600   3.160 -19.149  1.00 43.21    -0.035 C 
ATOM     10  HE3 MET A 624      15.486   2.589 -19.510  1.00  0.00     0.041 H 
ATOM     11  HE1 MET A 624      14.833   4.086 -18.572  1.00  0.00     0.041 H 
ATOM     12  HE2 MET A 624      14.167   3.328 -20.163  1.00  0.00     0.041 H 
ENDBRANCH   8   9
ENDBRANCH   5   8
ENDBRANCH   2   5
ENDBRANCH   1   2
END_RES MET A 624
BEGIN_RES LEU A 625
REMARK  4 active torsions:
REMARK  status: ('A' for Active; 'I' for Inactive)
REMARK    5  A    between atoms: CA   and  CB  
REMARK    6  A    between atoms: CB   and  CG  
REMARK    7  A    between atoms: CG   and  CD1 
REMARK    8  A    between atoms: CG   and  CD2 
ROOT
ATOM     13  CA  LEU A 625      17.135  -3.624 -16.776  1.00 49.20     0.089 C 
ENDROOT
BRANCH  13  14
ATOM     14  CB  LEU A 625      17.051  -5.150 -16.753  1.00 47.95    -0.035 C 
ATOM     15  HB2 LEU A 625      16.548  -5.506 -17.682  1.00  0.00     0.037 H 
ATOM     16  HB1 LEU A 625      18.071  -5.578 -16.892  1.00  0.00     0.037 H 
BRANCH  14  17
ATOM     17  CG  LEU A 625      16.392  -5.799 -15.540  1.00 41.83    -0.059 C 
ATOM     18  HG  LEU A 625      15.673  -5.074 -15.090  1.00  0.00     0.038 H 
BRANCH  17  19
ATOM     19  CD1 LEU A 625      15.630  -7.026 -15.988  1.00 45.22    -0.073 C 
ATOM     20 3HD1 LEU A 625      14.536  -6.943 -15.788  1.00  0.00     0.028 H 
ATOM     21 2HD1 LEU A 625      15.580  -7.112 -17.099  1.00  0.00     0.028 H 
ATOM     22 1HD1 LEU A 625      16.082  -7.929 -15.514  1.00  0.00     0.028 H 
ENDBRANCH  17  19
BRANCH  17  23
ATOM     23  CD2 LEU A 625      17.440  -6.156 -14.503  1.00 48.58    -0.073 C 
ATOM     24 1HD2 LEU A 625      18.463  -6.009 -14.922  1.00  0.00     0.028 H 
ATOM     25 3HD2 LEU A 625      17.294  -5.592 -13.552  1.00  0.00     0.028 H 
ATOM     26 2HD2 LEU A 625      17.297  -7.188 -14.105  1.00  0.00     0.028 H 
ENDBRANCH  17  23
ENDBRANCH  14  17
ENDBRANCH  13  14
END_RES LEU A 625
BEGIN_RES CYS A 673
REMARK  1 active torsions:
REMARK  status: ('A' for Active; 'I' for Inactive)
REMARK    9  A    between atoms: CA   and  CB  
ROOT
ATOM     27  CA  CYS A 673       6.053  10.339  -6.366  1.00 37.53     0.098 C 
ENDROOT
BRANCH  27  28
ATOM     28  CB  CYS A 673       6.430   9.481  -5.160  1.00 34.59     0.013 C 
ATOM     29  SG  CYS A 673       5.022   8.527  -4.523  1.00 37.22    -0.095 SA
ATOM     30  HB1 CYS A 673       7.294   8.816  -5.394  1.00  0.00     0.053 H 
ATOM     31  HB2 CYS A 673       6.894  10.098  -4.357  1.00  0.00     0.053 H 
ENDBRANCH  27  28
END_RES CYS A 673
ENDMDL
MODEL 5
REMARK VINA RESULT:    -5.695      1.611      3.231
REMARK INTER + INTRA:          -4.543
REMARK INTER:                  -5.675
REMARK INTRA:                   1.132
REMARK UNBOUND:                 1.152
REMARK SMILES Cn1c(=O)c2c(ncn2C)n(C)c1=O
REMARK SMILES IDX 4 1 14 2 11 3 9 4 2 5 7 6 5 7 6 8 3 9 13 10 8 11 12 12 10 13
REMARK SMILES IDX 1 14
REMARK H PARENT
ROOT
ATOM      1  O   UNL     1       8.412   4.543  -8.361  1.00  0.00    -0.267 OA
ATOM      2  O   UNL     1      12.092   7.300  -7.841  1.00  0.00    -0.247 OA
ATOM      3  N   UNL     1      12.416   5.030  -7.661  1.00  0.00    -0.279 N 
ATOM      4  N   UNL     1      10.305   2.269  -7.897  1.00  0.00    -0.328 N 
ATOM      5  N   UNL     1      10.247   5.946  -8.102  1.00  0.00    -0.261 N 
ATOM      6  N   UNL     1      12.473   2.594  -7.521  1.00  0.00    -0.218 NA
ATOM      7  C   UNL     1      10.504   3.620  -7.933  1.00  0.00     0.152 A 
ATOM      8  C   UNL     1      11.836   3.785  -7.700  1.00  0.00     0.167 A 
ATOM      9  C   UNL     1       9.611   4.703  -8.152  1.00  0.00     0.282 C 
ATOM     10  C   UNL     1      11.622   6.159  -7.864  1.00  0.00     0.332 C 
ATOM     11  C   UNL     1      11.521   1.691  -7.646  1.00  0.00     0.202 A 
ATOM     12  C   UNL     1      13.839   5.162  -7.409  1.00  0.00     0.157 C 
ATOM     13  C   UNL     1       9.056   1.576  -8.087  1.00  0.00     0.151 C 
ATOM     14  C   UNL     1       9.442   7.134  -8.311  1.00  0.00     0.159 C 
ENDROOT
TORSDOF 0
BEGIN_RES MET A 624
REMARK  4 active torsions:
REMARK  status: ('A' for Active; 'I' for Inactive)
REMARK    1  A    between atoms: CA   and  CB  
REMARK    2  A    between atoms: CB   and  CG  
REMARK    3  A    between atoms: CG   and  SD  
REMARK    4  A    between atoms: SD   and  CE  
ROOT
ATOM      1  CA  MET A 624      14.156  -1.311 -16.529  1.00 37.55     0.090 C 
ENDROOT
BRANCH   1   2
ATOM      2  CB  MET A 624      14.290  -0.416 -17.759  1.00 35.24    -0.030 C 
ATOM      3  HB2 MET A 624      15.022  -0.837 -18.488  1.00  0.00     0.037 H 
ATOM      4  HB1 MET A 624      13.372  -0.455 -18.389  1.00  0.00     0.037 H 
BRANCH   2   5
ATOM      5  CG  MET A 624      14.643   1.015 -17.387  1.00 41.56    -0.021 C 
ATOM      6  HG2 MET A 624      15.683   1.249 -17.716  1.00  0.00     0.049 H 
ATOM      7  HG1 MET A 624      14.761   1.103 -16.282  1.00  0.00     0.049 H 
BRANCH   5   8
ATOM      8  SD  MET A 624      13.509   2.275 -17.988  1.00 46.36    -0.173 SA
BRANCH   8   9
ATOM      9  CE  MET A 624      14.557   3.188 -19.116  1.00 43.21    -0.035 C 
ATOM     10  HE3 MET A 624      14.642   4.281 -18.908  1.00  0.00     0.041 H 
ATOM     11  HE1 MET A 624      14.105   2.925 -20.101  1.00  0.00     0.041 H 
ATOM     12  HE2 MET A 624      15.649   2.983 -19.023  1.00  0.00     0.041 H 
ENDBRANCH   8   9
ENDBRANCH   5   8
ENDBRANCH   2   5
ENDBRANCH   1   2
END_RES MET A 624
BEGIN_RES LEU A 625
REMARK  4 active torsions:
REMARK  status: ('A' for Active; 'I' for Inactive)
REMARK    5  A    between atoms: CA   and  CB  
REMARK    6  A    between atoms: CB   and  CG  
REMARK    7  A    between atoms: CG   and  CD1 
REMARK    8  A    between atoms: CG   and  CD2 
ROOT
ATOM     13  CA  LEU A 625      17.135  -3.624 -16.776  1.00 49.20     0.089 C 
ENDROOT
BRANCH  13  14
ATOM     14  CB  LEU A 625      17.051  -5.150 -16.753  1.00 47.95    -0.035 C 
ATOM     15  HB2 LEU A 625      16.548  -5.506 -17.682  1.00  0.00     0.037 H 
ATOM     16  HB1 LEU A 625      18.071  -5.578 -16.892  1.00  0.00     0.037 H 
BRANCH  14  17
ATOM     17  CG  LEU A 625      16.391  -5.799 -15.541  1.00 41.83    -0.059 C 
ATOM     18  HG  LEU A 625      15.674  -5.073 -15.090  1.00  0.00     0.038 H 
BRANCH  17  19
ATOM     19  CD1 LEU A 625      15.628  -7.025 -15.990  1.00 45.22    -0.073 C 
ATOM     20 3HD1 LEU A 625      14.805  -6.775 -16.701  1.00  0.00     0.028 H 
ATOM     21 2HD1 LEU A 625      16.230  -7.674 -16.667  1.00  0.00     0.028 H 
ATOM     22 1HD1 LEU A 625      15.260  -7.575 -15.091  1.00  0.00     0.028 H 
ENDBRANCH  17  19
BRANCH  17  23
ATOM     23  CD2 LEU A 625      17.439  -6.159 -14.504  1.00 48.58    -0.073 C 
ATOM     24 1HD2 LEU A 625      18.431  -5.742 -14.798  1.00  0.00     0.028 H 
ATOM     25 3HD2 LEU A 625      17.139  -5.837 -13.479  1.00  0.00     0.028 H 
ATOM     26 2HD2 LEU A 625      17.486  -7.258 -14.323  1.00  0.00     0.028 H 
ENDBRANCH  17  23
ENDBRANCH  14  17
ENDBRANCH  13  14
END_RES LEU A 625
BEGIN_RES CYS A 673
REMARK  1 active torsions:
REMARK  status: ('A' for Active; 'I' for Inactive)
REMARK    9  A    between atoms: CA   and  CB  
ROOT
ATOM     27  CA  CYS A 673       6.053  10.339  -6.366  1.00 37.53     0.098 C 
ENDROOT
BRANCH  27  28
ATOM     28  CB  CYS A 673       6.430   9.481  -5.160  1.00 34.59     0.013 C 
ATOM     29  SG  CYS A 673       5.027   8.510  -4.537  1.00 37.22    -0.095 SA
ATOM     30  HB1 CYS A 673       7.302   8.826  -5.390  1.00  0.00     0.053 H 
ATOM     31  HB2 CYS A 673       6.881  10.101  -4.351  1.00  0.00     0.053 H 
ENDBRANCH  27  28
END_RES CYS A 673
ENDMDL
MODEL 6
REMARK VINA RESULT:    -5.673      1.597      3.892
REMARK INTER + INTRA:          -4.521
REMARK INTER:                  -5.673
REMARK INTRA:                   1.152
REMARK UNBOUND:                 1.152
REMARK SMILES Cn1c(=O)c2c(ncn2C)n(C)c1=O
REMARK SMILES IDX 4 1 14 2 11 3 9 4 2 5 7 6 5 7 6 8 3 9 13 10 8 11 12 12 10 13
REMARK SMILES IDX 1 14
REMARK H PARENT
ROOT
ATOM      1  O   UNL     1      13.381   2.951  -7.517  1.00  0.00    -0.267 OA
ATOM      2  O   UNL     1      11.898   7.328  -7.753  1.00  0.00    -0.247 OA
ATOM      3  N   UNL     1      10.358   5.652  -8.083  1.00  0.00    -0.279 N 
ATOM      4  N   UNL     1      10.547   2.174  -8.091  1.00  0.00    -0.328 N 
ATOM      5  N   UNL     1      12.657   5.157  -7.632  1.00  0.00    -0.261 N 
ATOM      6  N   UNL     1       8.944   3.687  -8.390  1.00  0.00    -0.218 NA
ATOM      7  C   UNL     1      11.140   3.396  -7.957  1.00  0.00     0.152 A 
ATOM      8  C   UNL     1      10.136   4.297  -8.145  1.00  0.00     0.167 A 
ATOM      9  C   UNL     1      12.484   3.772  -7.685  1.00  0.00     0.282 C 
ATOM     10  C   UNL     1      11.644   6.122  -7.820  1.00  0.00     0.332 C 
ATOM     11  C   UNL     1       9.221   2.399  -8.352  1.00  0.00     0.202 A 
ATOM     12  C   UNL     1       9.260   6.578  -8.289  1.00  0.00     0.157 C 
ATOM     13  C   UNL     1      11.186   0.888  -7.981  1.00  0.00     0.151 C 
ATOM     14  C   UNL     1      13.986   5.669  -7.360  1.00  0.00     0.159 C 
ENDROOT
TORSDOF 0
BEGIN_RES MET A 624
REMARK  4 active torsions:
REMARK  status: ('A' for Active; 'I' for Inactive)
REMARK    1  A    between atoms: CA   and  CB  
REMARK    2  A    between atoms: CB   and  CG  
REMARK    3  A    between atoms: CG   and  SD  
REMARK    4  A    between atoms: SD   and  CE  
ROOT
ATOM      1  CA  MET A 624      14.156  -1.311 -16.529  1.00 37.55     0.090 C 
ENDROOT
BRANCH   1   2
ATOM      2  CB  MET A 624      14.290  -0.416 -17.759  1.00 35.24    -0.030 C 
ATOM      3  HB2 MET A 624      15.007  -0.847 -18.497  1.00  0.00     0.037 H 
ATOM      4  HB1 MET A 624      13.364  -0.440 -18.379  1.00  0.00     0.037 H 
BRANCH   2   5
ATOM      5  CG  MET A 624      14.670   1.009 -17.388  1.00 41.56    -0.021 C 
ATOM      6  HG2 MET A 624      15.717   1.220 -17.709  1.00  0.00     0.049 H 
ATOM      7  HG1 MET A 624      14.780   1.099 -16.283  1.00  0.00     0.049 H 
BRANCH   5   8
ATOM      8  SD  MET A 624      13.566   2.290 -18.003  1.00 46.36    -0.173 SA
BRANCH   8   9
ATOM      9  CE  MET A 624      14.647   3.185 -19.115  1.00 43.21    -0.035 C 
ATOM     10  HE3 MET A 624      14.964   4.194 -18.761  1.00  0.00     0.041 H 
ATOM     11  HE1 MET A 624      14.050   3.178 -20.058  1.00  0.00     0.041 H 
ATOM     12  HE2 MET A 624      15.682   2.779 -19.204  1.00  0.00     0.041 H 
ENDBRANCH   8   9
ENDBRANCH   5   8
ENDBRANCH   2   5
ENDBRANCH   1   2
END_RES MET A 624
BEGIN_RES LEU A 625
REMARK  4 active torsions:
REMARK  status: ('A' for Active; 'I' for Inactive)
REMARK    5  A    between atoms: CA   and  CB  
REMARK    6  A    between atoms: CB   and  CG  
REMARK    7  A    between atoms: CG   and  CD1 
REMARK    8  A    between atoms: CG   and  CD2 
ROOT
ATOM     13  CA  LEU A 625      17.135  -3.624 -16.776  1.00 49.20     0.089 C 
ENDROOT
BRANCH  13  14
ATOM     14  CB  LEU A 625      17.051  -5.150 -16.753  1.00 47.95    -0.035 C 
ATOM     15  HB2 LEU A 625      16.549  -5.506 -17.683  1.00  0.00     0.037 H 
ATOM     16  HB1 LEU A 625      18.071  -5.578 -16.891  1.00  0.00     0.037 H 
BRANCH  14  17
ATOM     17  CG  LEU A 625      16.390  -5.799 -15.541  1.00 41.83    -0.059 C 
ATOM     18  HG  LEU A 625      15.671  -5.074 -15.093  1.00  0.00     0.038 H 
BRANCH  17  19
ATOM     19  CD1 LEU A 625      15.630  -7.027 -15.990  1.00 45.22    -0.073 C 
ATOM     20 3HD1 LEU A 625      16.272  -7.939 -16.010  1.00  0.00     0.028 H 
ATOM     21 2HD1 LEU A 625      14.892  -7.371 -15.228  1.00  0.00     0.028 H 
ATOM     22 1HD1 LEU A 625      15.155  -6.821 -16.978  1.00  0.00     0.028 H 
ENDBRANCH  17  19
BRANCH  17  23
ATOM     23  CD2 LEU A 625      17.437  -6.155 -14.502  1.00 48.58    -0.073 C 
ATOM     24 1HD2 LEU A 625      17.354  -7.232 -14.225  1.00  0.00     0.028 H 
ATOM     25 3HD2 LEU A 625      18.466  -5.890 -14.839  1.00  0.00     0.028 H 
ATOM     26 2HD2 LEU A 625      17.381  -5.490 -13.609  1.00  0.00     0.028 H 
ENDBRANCH  17  23
ENDBRANCH  14  17
ENDBRANCH  13  14
END_RES LEU A 625
BEGIN_RES CYS A 673
REMARK  1 active torsions:
REMARK  status: ('A' for Active; 'I' for Inactive)
REMARK    9  A    between atoms: CA   and  CB  
ROOT
ATOM     27  CA  CYS A 673       6.053  10.339  -6.366  1.00 37.53     0.098 C 
ENDROOT
BRANCH  27  28
ATOM     28  CB  CYS A 673       6.430   9.481  -5.160  1.00 34.59     0.013 C 
ATOM     29  SG  CYS A 673       5.023   8.525  -4.525  1.00 37.22    -0.095 SA
ATOM     30  HB1 CYS A 673       7.295   8.817  -5.394  1.00  0.00     0.053 H 
ATOM     31  HB2 CYS A 673       6.892  10.099  -4.356  1.00  0.00     0.053 H 
ENDBRANCH  27  28
END_RES CYS A 673
ENDMDL
