MODEL 1
REMARK VINA RESULT:   -10.361      0.000      0.000
REMARK INTER + INTRA:         -14.467
REMARK INTER:                 -15.194
REMARK INTRA:                   0.727
REMARK UNBOUND:                 0.134
REMARK SMILES Cc1ccc(NC(=O)c2ccc(CN3CCN(C)CC3)cc2)cc1Nc1nccc(-c2cccnc2)n1
REMARK SMILES IDX 8 1 6 2 7 3 9 5 10 6 22 7 11 8 21 9 12 10 13 11 14 12 15 13
REMARK SMILES IDX 20 14 16 15 19 16 17 17 18 18 5 19 23 20 4 21 24 22 3 23
REMARK SMILES IDX 2 24 1 25 25 26 26 28 37 29 27 30 30 31 28 32 29 33 31 34
REMARK SMILES IDX 32 35 36 36 33 37 35 38 34 39
REMARK H PARENT 6 4 25 27
ROOT
ATOM      1  O   UNL     1      18.478   1.596  -8.666  1.00  0.00    -0.269 OA
ATOM      2  N   UNL     1      16.246   1.295  -8.055  1.00  0.00    -0.322 N 
ATOM      3  C   UNL     1      17.410   1.002  -8.739  1.00  0.00     0.255 C 
ATOM      4  H   UNL     1      15.557   0.557  -7.985  1.00  0.00     0.170 HD
ENDROOT
BRANCH   3   5
ATOM      5  C   UNL     1      17.329  -0.200  -9.611  1.00  0.00     0.040 A 
ATOM      6  C   UNL     1      18.183  -1.289  -9.410  1.00  0.00     0.014 A 
ATOM      7  C   UNL     1      16.341  -0.259 -10.599  1.00  0.00     0.014 A 
ATOM      8  C   UNL     1      18.056  -2.426 -10.210  1.00  0.00     0.006 A 
ATOM      9  C   UNL     1      16.222  -1.395 -11.402  1.00  0.00     0.006 A 
ATOM     10  C   UNL     1      17.082  -2.487 -11.220  1.00  0.00    -0.034 A 
BRANCH  10  11
ATOM     11  C   UNL     1      16.925  -3.740 -12.060  1.00  0.00     0.120 C 
BRANCH  11  12
ATOM     12  N   UNL     1      16.526  -4.919 -11.277  1.00  0.00    -0.297 NA
ATOM     13  C   UNL     1      15.587  -5.780 -12.030  1.00  0.00     0.100 C 
ATOM     14  C   UNL     1      15.878  -4.497 -10.016  1.00  0.00     0.100 C 
ATOM     15  C   UNL     1      15.089  -6.980 -11.191  1.00  0.00     0.099 C 
ATOM     16  C   UNL     1      15.384  -5.699  -9.178  1.00  0.00     0.099 C 
ATOM     17  N   UNL     1      14.448  -6.552  -9.933  1.00  0.00    -0.304 NA
ATOM     18  C   UNL     1      14.042  -7.708  -9.136  1.00  0.00     0.105 C 
ENDBRANCH  11  12
ENDBRANCH  10  11
ENDBRANCH   3   5
BRANCH   2  19
ATOM     19  C   UNL     1      15.944   2.498  -7.385  1.00  0.00     0.043 A 
ATOM     20  C   UNL     1      15.068   3.460  -7.895  1.00  0.00     0.052 A 
ATOM     21  C   UNL     1      16.496   2.691  -6.120  1.00  0.00     0.026 A 
ATOM     22  C   UNL     1      14.719   4.615  -7.172  1.00  0.00     0.046 A 
ATOM     23  C   UNL     1      16.194   3.842  -5.392  1.00  0.00     0.008 A 
ATOM     24  C   UNL     1      15.308   4.805  -5.902  1.00  0.00    -0.027 A 
ATOM     25  C   UNL     1      14.986   6.007  -5.055  1.00  0.00     0.046 C 
BRANCH  22  26
ATOM     26  N   UNL     1      13.743   5.514  -7.636  1.00  0.00    -0.324 N 
ATOM     27  H   UNL     1      14.021   6.467  -7.803  1.00  0.00     0.170 HD
BRANCH  26  28
ATOM     28  C   UNL     1      12.376   5.384  -7.872  1.00  0.00     0.227 A 
ATOM     29  N   UNL     1      11.786   4.185  -7.929  1.00  0.00    -0.213 NA
ATOM     30  N   UNL     1      11.696   6.536  -7.985  1.00  0.00    -0.221 NA
ATOM     31  C   UNL     1      10.452   4.115  -8.124  1.00  0.00     0.077 A 
ATOM     32  C   UNL     1      10.368   6.444  -8.181  1.00  0.00     0.117 A 
ATOM     33  C   UNL     1       9.688   5.254  -8.256  1.00  0.00     0.049 A 
BRANCH  31  34
ATOM     34  C   UNL     1       9.901   2.754  -8.197  1.00  0.00     0.019 A 
ATOM     35  C   UNL     1      10.073   1.958  -9.339  1.00  0.00     0.013 A 
ATOM     36  C   UNL     1       9.199   2.160  -7.149  1.00  0.00     0.121 A 
ATOM     37  C   UNL     1       9.561   0.664  -9.393  1.00  0.00     0.021 A 
ATOM     38  N   UNL     1       8.679   0.905  -7.167  1.00  0.00    -0.264 NA
ATOM     39  C   UNL     1       8.878   0.186  -8.291  1.00  0.00     0.111 A 
ENDBRANCH  31  34
ENDBRANCH  26  28
ENDBRANCH  22  26
ENDBRANCH   2  19
TORSDOF 7
BEGIN_RES MET A 624
REMARK  4 active torsions:
REMARK  status: ('A' for Active; 'I' for Inactive)
REMARK    1  A    between atoms: CA   and  CB  
REMARK    2  A    between atoms: CB   and  CG  
REMARK    3  A    between atoms: CG   and  SD  
REMARK    4  A    between atoms: SD   and  CE  
ROOT
ATOM      1  CA  MET A 624      14.156  -1.311 -16.529  1.00 37.55     0.090 C 
ENDROOT
BRANCH   1   2
ATOM      2  CB  MET A 624      14.290  -0.416 -17.759  1.00 35.24    -0.030 C 
ATOM      3  HB2 MET A 624      14.996  -0.854 -18.503  1.00  0.00     0.037 H 
ATOM      4  HB1 MET A 624      13.359  -0.429 -18.371  1.00  0.00     0.037 H 
BRANCH   2   5
ATOM      5  CG  MET A 624      14.688   1.004 -17.390  1.00 41.56    -0.021 C 
ATOM      6  HG2 MET A 624      15.742   1.198 -17.701  1.00  0.00     0.049 H 
ATOM      7  HG1 MET A 624      14.789   1.096 -16.284  1.00  0.00     0.049 H 
BRANCH   5   8
ATOM      8  SD  MET A 624      13.612   2.300 -18.020  1.00 46.36    -0.173 SA
BRANCH   8   9
ATOM      9  CE  MET A 624      14.725   3.191 -19.103  1.00 43.21    -0.035 C 
ATOM     10  HE3 MET A 624      15.672   2.660 -19.353  1.00  0.00     0.041 H 
ATOM     11  HE1 MET A 624      14.850   4.152 -18.550  1.00  0.00     0.041 H 
ATOM     12  HE2 MET A 624      14.383   3.292 -20.159  1.00  0.00     0.041 H 
ENDBRANCH   8   9
ENDBRANCH   5   8
ENDBRANCH   2   5
ENDBRANCH   1   2
END_RES MET A 624
BEGIN_RES LEU A 625
REMARK  4 active torsions:
REMARK  status: ('A' for Active; 'I' for Inactive)
REMARK    5  A    between atoms: CA   and  CB  
REMARK    6  A    between atoms: CB   and  CG  
REMARK    7  A    between atoms: CG   and  CD1 
REMARK    8  A    between atoms: CG   and  CD2 
ROOT
ATOM     13  CA  LEU A 625      17.135  -3.624 -16.776  1.00 49.20     0.089 C 
ENDROOT
BRANCH  13  14
ATOM     14  CB  LEU A 625      17.051  -5.150 -16.753  1.00 47.95    -0.035 C 
ATOM     15  HB2 LEU A 625      16.403  -5.497 -17.591  1.00  0.00     0.037 H 
ATOM     16  HB1 LEU A 625      18.034  -5.578 -17.059  1.00  0.00     0.037 H 
BRANCH  14  17
ATOM     17  CG  LEU A 625      16.595  -5.809 -15.455  1.00 41.83    -0.059 C 
ATOM     18  HG  LEU A 625      16.036  -5.058 -14.848  1.00  0.00     0.038 H 
BRANCH  17  19
ATOM     19  CD1 LEU A 625      15.668  -6.958 -15.783  1.00 45.22    -0.073 C 
ATOM     20 3HD1 LEU A 625      14.594  -6.685 -15.663  1.00  0.00     0.028 H 
ATOM     21 2HD1 LEU A 625      15.650  -7.190 -16.874  1.00  0.00     0.028 H 
ATOM     22 1HD1 LEU A 625      15.953  -7.843 -15.166  1.00  0.00     0.028 H 
ENDBRANCH  17  19
BRANCH  17  23
ATOM     23  CD2 LEU A 625      17.795  -6.286 -14.660  1.00 48.58    -0.073 C 
ATOM     24 1HD2 LEU A 625      17.926  -7.387 -14.783  1.00  0.00     0.028 H 
ATOM     25 3HD2 LEU A 625      18.721  -5.724 -14.925  1.00  0.00     0.028 H 
ATOM     26 2HD2 LEU A 625      17.727  -5.992 -13.587  1.00  0.00     0.028 H 
ENDBRANCH  17  23
ENDBRANCH  14  17
ENDBRANCH  13  14
END_RES LEU A 625
BEGIN_RES CYS A 673
REMARK  1 active torsions:
REMARK  status: ('A' for Active; 'I' for Inactive)
REMARK    9  A    between atoms: CA   and  CB  
ROOT
ATOM     27  CA  CYS A 673       6.053  10.339  -6.366  1.00 37.53     0.098 C 
ENDROOT
BRANCH  27  28
ATOM     28  CB  CYS A 673       6.430   9.481  -5.160  1.00 34.59     0.013 C 
ATOM     29  SG  CYS A 673       5.022   8.526  -4.524  1.00 37.22    -0.095 SA
ATOM     30  HB1 CYS A 673       7.294   8.816  -5.394  1.00  0.00     0.053 H 
ATOM     31  HB2 CYS A 673       6.893  10.099  -4.356  1.00  0.00     0.053 H 
ENDBRANCH  27  28
END_RES CYS A 673
ENDMDL
MODEL 2
REMARK VINA RESULT:   -10.294      4.162     11.176
REMARK INTER + INTRA:         -14.372
REMARK INTER:                 -14.671
REMARK INTRA:                   0.298
REMARK UNBOUND:                 0.134
REMARK SMILES Cc1ccc(NC(=O)c2ccc(CN3CCN(C)CC3)cc2)cc1Nc1nccc(-c2cccnc2)n1
REMARK SMILES IDX 8 1 6 2 7 3 9 5 10 6 22 7 11 8 21 9 12 10 13 11 14 12 15 13
REMARK SMILES IDX 20 14 16 15 19 16 17 17 18 18 5 19 23 20 4 21 24 22 3 23
REMARK SMILES IDX 2 24 1 25 25 26 26 28 37 29 27 30 30 31 28 32 29 33 31 34
REMARK SMILES IDX 32 35 36 36 33 37 35 38 34 39
REMARK H PARENT 6 4 25 27
ROOT
ATOM      1  O   UNL     1      12.409   6.024  -6.048  1.00  0.00    -0.269 OA
ATOM      2  N   UNL     1      11.200   5.784  -8.030  1.00  0.00    -0.322 N 
ATOM      3  C   UNL     1      11.799   6.488  -7.004  1.00  0.00     0.255 C 
ATOM      4  H   UNL     1      11.006   6.293  -8.883  1.00  0.00     0.170 HD
ENDROOT
BRANCH   3   5
ATOM      5  C   UNL     1      11.714   7.967  -7.135  1.00  0.00     0.040 A 
ATOM      6  C   UNL     1      12.809   8.778  -6.821  1.00  0.00     0.014 A 
ATOM      7  C   UNL     1      10.543   8.538  -7.642  1.00  0.00     0.014 A 
ATOM      8  C   UNL     1      12.721  10.160  -6.998  1.00  0.00     0.006 A 
ATOM      9  C   UNL     1      10.457   9.922  -7.812  1.00  0.00     0.006 A 
ATOM     10  C   UNL     1      11.543  10.747  -7.486  1.00  0.00    -0.034 A 
BRANCH  10  11
ATOM     11  C   UNL     1      11.467  12.245  -7.712  1.00  0.00     0.120 C 
BRANCH  11  12
ATOM     12  N   UNL     1      12.706  12.951  -7.353  1.00  0.00    -0.297 NA
ATOM     13  C   UNL     1      12.456  14.014  -6.354  1.00  0.00     0.100 C 
ATOM     14  C   UNL     1      13.311  13.562  -8.556  1.00  0.00     0.100 C 
ATOM     15  C   UNL     1      13.731  14.824  -6.027  1.00  0.00     0.099 C 
ATOM     16  C   UNL     1      14.588  14.369  -8.227  1.00  0.00     0.099 C 
ATOM     17  N   UNL     1      14.332  15.427  -7.232  1.00  0.00    -0.304 NA
ATOM     18  C   UNL     1      15.567  16.135  -6.901  1.00  0.00     0.105 C 
ENDBRANCH  11  12
ENDBRANCH  10  11
ENDBRANCH   3   5
BRANCH   2  19
ATOM     19  C   UNL     1      10.889   4.409  -8.038  1.00  0.00     0.043 A 
ATOM     20  C   UNL     1      11.820   3.412  -7.731  1.00  0.00     0.052 A 
ATOM     21  C   UNL     1       9.569   4.044  -8.295  1.00  0.00     0.026 A 
ATOM     22  C   UNL     1      11.467   2.052  -7.665  1.00  0.00     0.046 A 
ATOM     23  C   UNL     1       9.196   2.700  -8.269  1.00  0.00     0.008 A 
ATOM     24  C   UNL     1      10.130   1.699  -7.952  1.00  0.00    -0.027 A 
ATOM     25  C   UNL     1       9.662   0.270  -7.898  1.00  0.00     0.046 C 
BRANCH  22  26
ATOM     26  N   UNL     1      12.376   1.071  -7.233  1.00  0.00    -0.324 N 
ATOM     27  H   UNL     1      12.018   0.307  -6.683  1.00  0.00     0.170 HD
BRANCH  26  28
ATOM     28  C   UNL     1      13.758   0.945  -7.353  1.00  0.00     0.227 A 
ATOM     29  N   UNL     1      14.311   0.125  -8.254  1.00  0.00    -0.213 NA
ATOM     30  N   UNL     1      14.484   1.733  -6.545  1.00  0.00    -0.221 NA
ATOM     31  C   UNL     1      15.655   0.067  -8.355  1.00  0.00     0.077 A 
ATOM     32  C   UNL     1      15.822   1.659  -6.660  1.00  0.00     0.117 A 
ATOM     33  C   UNL     1      16.467   0.841  -7.555  1.00  0.00     0.049 A 
BRANCH  31  34
ATOM     34  C   UNL     1      16.167  -0.880  -9.356  1.00  0.00     0.019 A 
ATOM     35  C   UNL     1      16.671  -2.134  -8.983  1.00  0.00     0.013 A 
ATOM     36  C   UNL     1      16.169  -0.613 -10.725  1.00  0.00     0.121 A 
ATOM     37  C   UNL     1      17.139  -3.032  -9.939  1.00  0.00     0.021 A 
ATOM     38  N   UNL     1      16.624  -1.459 -11.687  1.00  0.00    -0.264 NA
ATOM     39  C   UNL     1      17.095  -2.652 -11.267  1.00  0.00     0.111 A 
ENDBRANCH  31  34
ENDBRANCH  26  28
ENDBRANCH  22  26
ENDBRANCH   2  19
TORSDOF 7
BEGIN_RES MET A 624
REMARK  4 active torsions:
REMARK  status: ('A' for Active; 'I' for Inactive)
REMARK    1  A    between atoms: CA   and  CB  
REMARK    2  A    between atoms: CB   and  CG  
REMARK    3  A    between atoms: CG   and  SD  
REMARK    4  A    between atoms: SD   and  CE  
ROOT
ATOM      1  CA  MET A 624      14.156  -1.311 -16.529  1.00 37.55     0.090 C 
ENDROOT
BRANCH   1   2
ATOM      2  CB  MET A 624      14.290  -0.416 -17.759  1.00 35.24    -0.030 C 
ATOM      3  HB2 MET A 624      15.003  -0.849 -18.499  1.00  0.00     0.037 H 
ATOM      4  HB1 MET A 624      13.362  -0.435 -18.376  1.00  0.00     0.037 H 
BRANCH   2   5
ATOM      5  CG  MET A 624      14.677   1.007 -17.389  1.00 41.56    -0.021 C 
ATOM      6  HG2 MET A 624      15.726   1.212 -17.707  1.00  0.00     0.049 H 
ATOM      7  HG1 MET A 624      14.784   1.097 -16.283  1.00  0.00     0.049 H 
BRANCH   5   8
ATOM      8  SD  MET A 624      13.583   2.293 -18.009  1.00 46.36    -0.173 SA
BRANCH   8   9
ATOM      9  CE  MET A 624      14.648   3.133 -19.177  1.00 43.21    -0.035 C 
ATOM     10  HE3 MET A 624      14.613   2.741 -20.220  1.00  0.00     0.041 H 
ATOM     11  HE1 MET A 624      15.639   3.053 -18.672  1.00  0.00     0.041 H 
ATOM     12  HE2 MET A 624      14.335   4.169 -19.448  1.00  0.00     0.041 H 
ENDBRANCH   8   9
ENDBRANCH   5   8
ENDBRANCH   2   5
ENDBRANCH   1   2
END_RES MET A 624
BEGIN_RES LEU A 625
REMARK  4 active torsions:
REMARK  status: ('A' for Active; 'I' for Inactive)
REMARK    5  A    between atoms: CA   and  CB  
REMARK    6  A    between atoms: CB   and  CG  
REMARK    7  A    between atoms: CG   and  CD1 
REMARK    8  A    between atoms: CG   and  CD2 
ROOT
ATOM     13  CA  LEU A 625      17.135  -3.624 -16.776  1.00 49.20     0.089 C 
ENDROOT
BRANCH  13  14
ATOM     14  CB  LEU A 625      17.051  -5.150 -16.753  1.00 47.95    -0.035 C 
ATOM     15  HB2 LEU A 625      16.553  -5.507 -17.685  1.00  0.00     0.037 H 
ATOM     16  HB1 LEU A 625      18.072  -5.578 -16.886  1.00  0.00     0.037 H 
BRANCH  14  17
ATOM     17  CG  LEU A 625      16.385  -5.799 -15.544  1.00 41.83    -0.059 C 
ATOM     18  HG  LEU A 625      15.661  -5.075 -15.101  1.00  0.00     0.038 H 
BRANCH  17  19
ATOM     19  CD1 LEU A 625      15.630  -7.029 -15.996  1.00 45.22    -0.073 C 
ATOM     20 3HD1 LEU A 625      14.788  -6.781 -16.684  1.00  0.00     0.028 H 
ATOM     21 2HD1 LEU A 625      16.226  -7.658 -16.697  1.00  0.00     0.028 H 
ATOM     22 1HD1 LEU A 625      15.291  -7.598 -15.099  1.00  0.00     0.028 H 
ENDBRANCH  17  19
BRANCH  17  23
ATOM     23  CD2 LEU A 625      17.426  -6.151 -14.499  1.00 48.58    -0.073 C 
ATOM     24 1HD2 LEU A 625      17.806  -5.226 -14.005  1.00  0.00     0.028 H 
ATOM     25 3HD2 LEU A 625      17.039  -6.889 -13.757  1.00  0.00     0.028 H 
ATOM     26 2HD2 LEU A 625      18.253  -6.766 -14.925  1.00  0.00     0.028 H 
ENDBRANCH  17  23
ENDBRANCH  14  17
ENDBRANCH  13  14
END_RES LEU A 625
BEGIN_RES CYS A 673
REMARK  1 active torsions:
REMARK  status: ('A' for Active; 'I' for Inactive)
REMARK    9  A    between atoms: CA   and  CB  
ROOT
ATOM     27  CA  CYS A 673       6.053  10.339  -6.366  1.00 37.53     0.098 C 
ENDROOT
BRANCH  27  28
ATOM     28  CB  CYS A 673       6.430   9.481  -5.160  1.00 34.59     0.013 C 
ATOM     29  SG  CYS A 673       5.024   8.522  -4.527  1.00 37.22    -0.095 SA
ATOM     30  HB1 CYS A 673       7.297   8.819  -5.393  1.00  0.00     0.053 H 
ATOM     31  HB2 CYS A 673       6.890  10.099  -4.355  1.00  0.00     0.053 H 
ENDBRANCH  27  28
END_RES CYS A 673
ENDMDL
MODEL 3
REMARK VINA RESULT:   -10.285      0.662      1.031
REMARK INTER + INTRA:         -14.360
REMARK INTER:                 -14.575
REMARK INTRA:                   0.215
REMARK UNBOUND:                 0.134
REMARK SMILES Cc1ccc(NC(=O)c2ccc(CN3CCN(C)CC3)cc2)cc1Nc1nccc(-c2cccnc2)n1
REMARK SMILES IDX 8 1 6 2 7 3 9 5 10 6 22 7 11 8 21 9 12 10 13 11 14 12 15 13
REMARK SMILES IDX 20 14 16 15 19 16 17 17 18 18 5 19 23 20 4 21 24 22 3 23
REMARK SMILES IDX 2 24 1 25 25 26 26 28 37 29 27 30 30 31 28 32 29 33 31 34
REMARK SMILES IDX 32 35 36 36 33 37 35 38 34 39
REMARK H PARENT 6 4 25 27
ROOT
ATOM      1  O   UNL     1      18.464   2.344  -7.931  1.00  0.00    -0.269 OA
ATOM      2  N   UNL     1      16.159   2.116  -7.644  1.00  0.00    -0.322 N 
ATOM      3  C   UNL     1      17.404   1.762  -8.128  1.00  0.00     0.255 C 
ATOM      4  H   UNL     1      15.450   1.394  -7.634  1.00  0.00     0.170 HD
ENDROOT
BRANCH   3   5
ATOM      5  C   UNL     1      17.425   0.511  -8.929  1.00  0.00     0.040 A 
ATOM      6  C   UNL     1      18.531  -0.345  -8.893  1.00  0.00     0.014 A 
ATOM      7  C   UNL     1      16.293   0.160  -9.673  1.00  0.00     0.014 A 
ATOM      8  C   UNL     1      18.507  -1.539  -9.617  1.00  0.00     0.006 A 
ATOM      9  C   UNL     1      16.276  -1.033 -10.401  1.00  0.00     0.006 A 
ATOM     10  C   UNL     1      17.385  -1.890 -10.384  1.00  0.00    -0.034 A 
BRANCH  10  11
ATOM     11  C   UNL     1      17.351  -3.207 -11.137  1.00  0.00     0.120 C 
BRANCH  11  12
ATOM     12  N   UNL     1      16.204  -4.053 -10.776  1.00  0.00    -0.297 NA
ATOM     13  C   UNL     1      16.275  -4.493  -9.364  1.00  0.00     0.100 C 
ATOM     14  C   UNL     1      16.161  -5.249 -11.645  1.00  0.00     0.100 C 
ATOM     15  C   UNL     1      15.124  -5.455  -8.990  1.00  0.00     0.099 C 
ATOM     16  C   UNL     1      15.007  -6.207 -11.271  1.00  0.00     0.099 C 
ATOM     17  N   UNL     1      15.084  -6.643  -9.864  1.00  0.00    -0.304 NA
ATOM     18  C   UNL     1      13.950  -7.501  -9.525  1.00  0.00     0.105 C 
ENDBRANCH  11  12
ENDBRANCH  10  11
ENDBRANCH   3   5
BRANCH   2  19
ATOM     19  C   UNL     1      15.791   3.362  -7.099  1.00  0.00     0.043 A 
ATOM     20  C   UNL     1      14.835   4.200  -7.681  1.00  0.00     0.052 A 
ATOM     21  C   UNL     1      16.361   3.732  -5.882  1.00  0.00     0.026 A 
ATOM     22  C   UNL     1      14.424   5.403  -7.076  1.00  0.00     0.046 A 
ATOM     23  C   UNL     1      15.998   4.933  -5.275  1.00  0.00     0.008 A 
ATOM     24  C   UNL     1      15.032   5.772  -5.856  1.00  0.00    -0.027 A 
ATOM     25  C   UNL     1      14.648   7.036  -5.134  1.00  0.00     0.046 C 
BRANCH  22  26
ATOM     26  N   UNL     1      13.375   6.176  -7.601  1.00  0.00    -0.324 N 
ATOM     27  H   UNL     1      13.562   7.142  -7.814  1.00  0.00     0.170 HD
BRANCH  26  28
ATOM     28  C   UNL     1      12.032   5.900  -7.851  1.00  0.00     0.227 A 
ATOM     29  N   UNL     1      11.572   4.645  -7.899  1.00  0.00    -0.213 NA
ATOM     30  N   UNL     1      11.236   6.972  -7.987  1.00  0.00    -0.221 NA
ATOM     31  C   UNL     1      10.256   4.433  -8.108  1.00  0.00     0.077 A 
ATOM     32  C   UNL     1       9.927   6.739  -8.196  1.00  0.00     0.117 A 
ATOM     33  C   UNL     1       9.377   5.483  -8.263  1.00  0.00     0.049 A 
BRANCH  31  34
ATOM     34  C   UNL     1       9.852   3.020  -8.170  1.00  0.00     0.019 A 
ATOM     35  C   UNL     1      10.121   2.233  -9.298  1.00  0.00     0.013 A 
ATOM     36  C   UNL     1       9.202   2.368  -7.122  1.00  0.00     0.121 A 
ATOM     37  C   UNL     1       9.749   0.892  -9.342  1.00  0.00     0.021 A 
ATOM     38  N   UNL     1       8.817   1.065  -7.130  1.00  0.00    -0.264 NA
ATOM     39  C   UNL     1       9.105   0.358  -8.242  1.00  0.00     0.111 A 
ENDBRANCH  31  34
ENDBRANCH  26  28
ENDBRANCH  22  26
ENDBRANCH   2  19
TORSDOF 7
BEGIN_RES MET A 624
REMARK  4 active torsions:
REMARK  status: ('A' for Active; 'I' for Inactive)
REMARK    1  A    between atoms: CA   and  CB  
REMARK    2  A    between atoms: CB   and  CG  
REMARK    3  A    between atoms: CG   and  SD  
REMARK    4  A    between atoms: SD   and  CE  
ROOT
ATOM      1  CA  MET A 624      14.156  -1.311 -16.529  1.00 37.55     0.090 C 
ENDROOT
BRANCH   1   2
ATOM      2  CB  MET A 624      14.290  -0.416 -17.759  1.00 35.24    -0.030 C 
ATOM      3  HB2 MET A 624      14.997  -0.853 -18.502  1.00  0.00     0.037 H 
ATOM      4  HB1 MET A 624      13.359  -0.430 -18.372  1.00  0.00     0.037 H 
BRANCH   2   5
ATOM      5  CG  MET A 624      14.687   1.004 -17.390  1.00 41.56    -0.021 C 
ATOM      6  HG2 MET A 624      15.738   1.201 -17.704  1.00  0.00     0.049 H 
ATOM      7  HG1 MET A 624      14.791   1.096 -16.284  1.00  0.00     0.049 H 
BRANCH   5   8
ATOM      8  SD  MET A 624      13.605   2.298 -18.015  1.00 46.36    -0.173 SA
BRANCH   8   9
ATOM      9  CE  MET A 624      14.697   3.160 -19.143  1.00 43.21    -0.035 C 
ATOM     10  HE3 MET A 624      14.195   3.863 -19.847  1.00  0.00     0.041 H 
ATOM     11  HE1 MET A 624      15.235   2.309 -19.623  1.00  0.00     0.041 H 
ATOM     12  HE2 MET A 624      15.350   3.934 -18.676  1.00  0.00     0.041 H 
ENDBRANCH   8   9
ENDBRANCH   5   8
ENDBRANCH   2   5
ENDBRANCH   1   2
END_RES MET A 624
BEGIN_RES LEU A 625
REMARK  4 active torsions:
REMARK  status: ('A' for Active; 'I' for Inactive)
REMARK    5  A    between atoms: CA   and  CB  
REMARK    6  A    between atoms: CB   and  CG  
REMARK    7  A    between atoms: CG   and  CD1 
REMARK    8  A    between atoms: CG   and  CD2 
ROOT
ATOM     13  CA  LEU A 625      17.135  -3.624 -16.776  1.00 49.20     0.089 C 
ENDROOT
BRANCH  13  14
ATOM     14  CB  LEU A 625      17.051  -5.150 -16.753  1.00 47.95    -0.035 C 
ATOM     15  HB2 LEU A 625      16.423  -5.498 -17.606  1.00  0.00     0.037 H 
ATOM     16  HB1 LEU A 625      18.041  -5.578 -17.035  1.00  0.00     0.037 H 
BRANCH  14  17
ATOM     17  CG  LEU A 625      16.564  -5.807 -15.466  1.00 41.83    -0.059 C 
ATOM     18  HG  LEU A 625      15.983  -5.058 -14.877  1.00  0.00     0.038 H 
BRANCH  17  19
ATOM     19  CD1 LEU A 625      15.655  -6.965 -15.814  1.00 45.22    -0.073 C 
ATOM     20 3HD1 LEU A 625      15.036  -7.294 -14.947  1.00  0.00     0.028 H 
ATOM     21 2HD1 LEU A 625      14.824  -6.662 -16.494  1.00  0.00     0.028 H 
ATOM     22 1HD1 LEU A 625      16.268  -7.795 -16.238  1.00  0.00     0.028 H 
ENDBRANCH  17  19
BRANCH  17  23
ATOM     23  CD2 LEU A 625      17.745  -6.273 -14.636  1.00 48.58    -0.073 C 
ATOM     24 1HD2 LEU A 625      17.638  -7.354 -14.386  1.00  0.00     0.028 H 
ATOM     25 3HD2 LEU A 625      18.718  -6.055 -15.136  1.00  0.00     0.028 H 
ATOM     26 2HD2 LEU A 625      17.886  -5.647 -13.724  1.00  0.00     0.028 H 
ENDBRANCH  17  23
ENDBRANCH  14  17
ENDBRANCH  13  14
END_RES LEU A 625
BEGIN_RES CYS A 673
REMARK  1 active torsions:
REMARK  status: ('A' for Active; 'I' for Inactive)
REMARK    9  A    between atoms: CA   and  CB  
ROOT
ATOM     27  CA  CYS A 673       6.053  10.339  -6.366  1.00 37.53     0.098 C 
ENDROOT
BRANCH  27  28
ATOM     28  CB  CYS A 673       6.430   9.481  -5.160  1.00 34.59     0.013 C 
ATOM     29  SG  CYS A 673       5.024   8.520  -4.529  1.00 37.22    -0.095 SA
ATOM     30  HB1 CYS A 673       7.298   8.820  -5.392  1.00  0.00     0.053 H 
ATOM     31  HB2 CYS A 673       6.888  10.099  -4.354  1.00  0.00     0.053 H 
ENDBRANCH  27  28
END_RES CYS A 673
ENDMDL
MODEL 4
REMARK VINA RESULT:   -10.276      1.372      2.108
REMARK INTER + INTRA:         -14.348
REMARK INTER:                 -14.846
REMARK INTRA:                   0.498
REMARK UNBOUND:                 0.134
REMARK SMILES Cc1ccc(NC(=O)c2ccc(CN3CCN(C)CC3)cc2)cc1Nc1nccc(-c2cccnc2)n1
REMARK SMILES IDX 8 1 6 2 7 3 9 5 10 6 22 7 11 8 21 9 12 10 13 11 14 12 15 13
REMARK SMILES IDX 20 14 16 15 19 16 17 17 18 18 5 19 23 20 4 21 24 22 3 23
REMARK SMILES IDX 2 24 1 25 25 26 26 28 37 29 27 30 30 31 28 32 29 33 31 34
REMARK SMILES IDX 32 35 36 36 33 37 35 38 34 39
REMARK H PARENT 6 4 25 27
ROOT
ATOM      1  O   UNL     1      14.646   1.627  -6.763  1.00  0.00    -0.269 OA
ATOM      2  N   UNL     1      15.682   3.338  -7.966  1.00  0.00    -0.322 N 
ATOM      3  C   UNL     1      15.495   2.035  -7.547  1.00  0.00     0.255 C 
ATOM      4  H   UNL     1      16.205   3.473  -8.822  1.00  0.00     0.170 HD
ENDROOT
BRANCH   3   5
ATOM      5  C   UNL     1      16.411   1.046  -8.173  1.00  0.00     0.040 A 
ATOM      6  C   UNL     1      16.586  -0.224  -7.612  1.00  0.00     0.014 A 
ATOM      7  C   UNL     1      17.049   1.374  -9.373  1.00  0.00     0.014 A 
ATOM      8  C   UNL     1      17.413  -1.153  -8.245  1.00  0.00     0.006 A 
ATOM      9  C   UNL     1      17.883   0.444  -9.999  1.00  0.00     0.006 A 
ATOM     10  C   UNL     1      18.077  -0.826  -9.438  1.00  0.00    -0.034 A 
BRANCH  10  11
ATOM     11  C   UNL     1      18.945  -1.853 -10.141  1.00  0.00     0.120 C 
BRANCH  11  12
ATOM     12  N   UNL     1      18.169  -2.874 -10.861  1.00  0.00    -0.297 NA
ATOM     13  C   UNL     1      16.917  -2.315 -11.417  1.00  0.00     0.100 C 
ATOM     14  C   UNL     1      17.830  -3.990  -9.952  1.00  0.00     0.100 C 
ATOM     15  C   UNL     1      16.046  -3.392 -12.103  1.00  0.00     0.099 C 
ATOM     16  C   UNL     1      16.962  -5.068 -10.642  1.00  0.00     0.099 C 
ATOM     17  N   UNL     1      15.715  -4.505 -11.192  1.00  0.00    -0.304 NA
ATOM     18  C   UNL     1      14.944  -5.534 -11.886  1.00  0.00     0.105 C 
ENDBRANCH  11  12
ENDBRANCH  10  11
ENDBRANCH   3   5
BRANCH   2  19
ATOM     19  C   UNL     1      15.162   4.500  -7.360  1.00  0.00     0.043 A 
ATOM     20  C   UNL     1      14.004   5.143  -7.807  1.00  0.00     0.052 A 
ATOM     21  C   UNL     1      15.801   4.977  -6.217  1.00  0.00     0.026 A 
ATOM     22  C   UNL     1      13.457   6.253  -7.137  1.00  0.00     0.046 A 
ATOM     23  C   UNL     1      15.301   6.095  -5.550  1.00  0.00     0.008 A 
ATOM     24  C   UNL     1      14.133   6.737  -5.995  1.00  0.00    -0.027 A 
ATOM     25  C   UNL     1      13.616   7.914  -5.212  1.00  0.00     0.046 C 
BRANCH  22  26
ATOM     26  N   UNL     1      12.227   6.816  -7.517  1.00  0.00    -0.324 N 
ATOM     27  H   UNL     1      12.161   7.819  -7.559  1.00  0.00     0.170 HD
BRANCH  26  28
ATOM     28  C   UNL     1      10.983   6.259  -7.807  1.00  0.00     0.227 A 
ATOM     29  N   UNL     1      10.811   4.935  -7.892  1.00  0.00    -0.213 NA
ATOM     30  N   UNL     1       9.974   7.134  -7.942  1.00  0.00    -0.221 NA
ATOM     31  C   UNL     1       9.578   4.445  -8.139  1.00  0.00     0.077 A 
ATOM     32  C   UNL     1       8.753   6.625  -8.189  1.00  0.00     0.117 A 
ATOM     33  C   UNL     1       8.494   5.281  -8.296  1.00  0.00     0.049 A 
BRANCH  31  34
ATOM     34  C   UNL     1       9.496   2.980  -8.240  1.00  0.00     0.019 A 
ATOM     35  C   UNL     1       9.908   2.304  -9.396  1.00  0.00     0.013 A 
ATOM     36  C   UNL     1       9.030   2.172  -7.203  1.00  0.00     0.121 A 
ATOM     37  C   UNL     1       9.842   0.916  -9.477  1.00  0.00     0.021 A 
ATOM     38  N   UNL     1       8.943   0.817  -7.247  1.00  0.00    -0.264 NA
ATOM     39  C   UNL     1       9.356   0.222  -8.385  1.00  0.00     0.111 A 
ENDBRANCH  31  34
ENDBRANCH  26  28
ENDBRANCH  22  26
ENDBRANCH   2  19
TORSDOF 7
BEGIN_RES MET A 624
REMARK  4 active torsions:
REMARK  status: ('A' for Active; 'I' for Inactive)
REMARK    1  A    between atoms: CA   and  CB  
REMARK    2  A    between atoms: CB   and  CG  
REMARK    3  A    between atoms: CG   and  SD  
REMARK    4  A    between atoms: SD   and  CE  
ROOT
ATOM      1  CA  MET A 624      14.156  -1.311 -16.529  1.00 37.55     0.090 C 
ENDROOT
BRANCH   1   2
ATOM      2  CB  MET A 624      14.290  -0.416 -17.759  1.00 35.24    -0.030 C 
ATOM      3  HB2 MET A 624      14.990  -0.858 -18.506  1.00  0.00     0.037 H 
ATOM      4  HB1 MET A 624      13.356  -0.422 -18.367  1.00  0.00     0.037 H 
BRANCH   2   5
ATOM      5  CG  MET A 624      14.699   1.001 -17.391  1.00 41.56    -0.021 C 
ATOM      6  HG2 MET A 624      15.753   1.188 -17.705  1.00  0.00     0.049 H 
ATOM      7  HG1 MET A 624      14.804   1.092 -16.285  1.00  0.00     0.049 H 
BRANCH   5   8
ATOM      8  SD  MET A 624      13.630   2.304 -18.018  1.00 46.36    -0.173 SA
BRANCH   8   9
ATOM      9  CE  MET A 624      14.671   3.047 -19.271  1.00 43.21    -0.035 C 
ATOM     10  HE3 MET A 624      15.327   2.337 -19.827  1.00  0.00     0.041 H 
ATOM     11  HE1 MET A 624      15.208   3.826 -18.679  1.00  0.00     0.041 H 
ATOM     12  HE2 MET A 624      14.136   3.420 -20.175  1.00  0.00     0.041 H 
ENDBRANCH   8   9
ENDBRANCH   5   8
ENDBRANCH   2   5
ENDBRANCH   1   2
END_RES MET A 624
BEGIN_RES LEU A 625
REMARK  4 active torsions:
REMARK  status: ('A' for Active; 'I' for Inactive)
REMARK    5  A    between atoms: CA   and  CB  
REMARK    6  A    between atoms: CB   and  CG  
REMARK    7  A    between atoms: CG   and  CD1 
REMARK    8  A    between atoms: CG   and  CD2 
ROOT
ATOM     13  CA  LEU A 625      17.135  -3.624 -16.776  1.00 49.20     0.089 C 
ENDROOT
BRANCH  13  14
ATOM     14  CB  LEU A 625      17.051  -5.150 -16.753  1.00 47.95    -0.035 C 
ATOM     15  HB2 LEU A 625      16.544  -5.506 -17.680  1.00  0.00     0.037 H 
ATOM     16  HB1 LEU A 625      18.071  -5.578 -16.896  1.00  0.00     0.037 H 
BRANCH  14  17
ATOM     17  CG  LEU A 625      16.396  -5.799 -15.538  1.00 41.83    -0.059 C 
ATOM     18  HG  LEU A 625      15.669  -5.079 -15.093  1.00  0.00     0.038 H 
BRANCH  17  19
ATOM     19  CD1 LEU A 625      15.649  -7.037 -15.981  1.00 45.22    -0.073 C 
ATOM     20 3HD1 LEU A 625      16.244  -7.968 -15.831  1.00  0.00     0.028 H 
ATOM     21 2HD1 LEU A 625      14.798  -7.284 -15.303  1.00  0.00     0.028 H 
ATOM     22 1HD1 LEU A 625      15.323  -6.907 -17.040  1.00  0.00     0.028 H 
ENDBRANCH  17  19
BRANCH  17  23
ATOM     23  CD2 LEU A 625      17.446  -6.140 -14.497  1.00 48.58    -0.073 C 
ATOM     24 1HD2 LEU A 625      17.086  -6.969 -13.844  1.00  0.00     0.028 H 
ATOM     25 3HD2 LEU A 625      18.433  -6.373 -14.961  1.00  0.00     0.028 H 
ATOM     26 2HD2 LEU A 625      17.751  -5.246 -13.905  1.00  0.00     0.028 H 
ENDBRANCH  17  23
ENDBRANCH  14  17
ENDBRANCH  13  14
END_RES LEU A 625
BEGIN_RES CYS A 673
REMARK  1 active torsions:
REMARK  status: ('A' for Active; 'I' for Inactive)
REMARK    9  A    between atoms: CA   and  CB  
ROOT
ATOM     27  CA  CYS A 673       6.053  10.339  -6.366  1.00 37.53     0.098 C 
ENDROOT
BRANCH  27  28
ATOM     28  CB  CYS A 673       6.430   9.481  -5.160  1.00 34.59     0.013 C 
ATOM     29  SG  CYS A 673       5.026   8.516  -4.532  1.00 37.22    -0.095 SA
ATOM     30  HB1 CYS A 673       7.300   8.822  -5.391  1.00  0.00     0.053 H 
ATOM     31  HB2 CYS A 673       6.885  10.100  -4.353  1.00  0.00     0.053 H 
ENDBRANCH  27  28
END_RES CYS A 673
ENDMDL
MODEL 5
REMARK VINA RESULT:   -10.261      2.161      3.684
REMARK INTER + INTRA:         -14.325
REMARK INTER:                 -14.469
REMARK INTRA:                   0.144
REMARK UNBOUND:                 0.134
REMARK SMILES Cc1ccc(NC(=O)c2ccc(CN3CCN(C)CC3)cc2)cc1Nc1nccc(-c2cccnc2)n1
REMARK SMILES IDX 8 1 6 2 7 3 9 5 10 6 22 7 11 8 21 9 12 10 13 11 14 12 15 13
REMARK SMILES IDX 20 14 16 15 19 16 17 17 18 18 5 19 23 20 4 21 24 22 3 23
REMARK SMILES IDX 2 24 1 25 25 26 26 28 37 29 27 30 30 31 28 32 29 33 31 34
REMARK SMILES IDX 32 35 36 36 33 37 35 38 34 39
REMARK H PARENT 6 4 25 27
ROOT
ATOM      1  O   UNL     1      16.331  -0.849 -11.423  1.00  0.00    -0.269 OA
ATOM      2  N   UNL     1      16.507  -1.131  -9.113  1.00  0.00    -0.322 N 
ATOM      3  C   UNL     1      16.472  -1.551 -10.429  1.00  0.00     0.255 C 
ATOM      4  H   UNL     1      16.925  -1.763  -8.441  1.00  0.00     0.170 HD
ENDROOT
BRANCH   3   5
ATOM      5  C   UNL     1      16.678  -3.011 -10.619  1.00  0.00     0.040 A 
ATOM      6  C   UNL     1      17.521  -3.732  -9.767  1.00  0.00     0.014 A 
ATOM      7  C   UNL     1      15.966  -3.673 -11.624  1.00  0.00     0.014 A 
ATOM      8  C   UNL     1      17.661  -5.111  -9.935  1.00  0.00     0.006 A 
ATOM      9  C   UNL     1      16.114  -5.052 -11.793  1.00  0.00     0.006 A 
ATOM     10  C   UNL     1      16.968  -5.783 -10.955  1.00  0.00    -0.034 A 
BRANCH  10  11
ATOM     11  C   UNL     1      17.094  -7.287 -11.108  1.00  0.00     0.120 C 
BRANCH  11  12
ATOM     12  N   UNL     1      17.325  -7.984  -9.834  1.00  0.00    -0.297 NA
ATOM     13  C   UNL     1      17.953  -9.307 -10.043  1.00  0.00     0.100 C 
ATOM     14  C   UNL     1      16.044  -8.173  -9.118  1.00  0.00     0.100 C 
ATOM     15  C   UNL     1      18.125 -10.092  -8.722  1.00  0.00     0.099 C 
ATOM     16  C   UNL     1      16.220  -8.955  -7.796  1.00  0.00     0.099 C 
ATOM     17  N   UNL     1      16.845 -10.273  -8.012  1.00  0.00    -0.304 NA
ATOM     18  C   UNL     1      17.048 -10.964  -6.740  1.00  0.00     0.105 C 
ENDBRANCH  11  12
ENDBRANCH  10  11
ENDBRANCH   3   5
BRANCH   2  19
ATOM     19  C   UNL     1      16.082   0.117  -8.616  1.00  0.00     0.043 A 
ATOM     20  C   UNL     1      14.793   0.348  -8.126  1.00  0.00     0.052 A 
ATOM     21  C   UNL     1      17.023   1.143  -8.548  1.00  0.00     0.026 A 
ATOM     22  C   UNL     1      14.415   1.579  -7.560  1.00  0.00     0.046 A 
ATOM     23  C   UNL     1      16.669   2.385  -8.022  1.00  0.00     0.008 A 
ATOM     24  C   UNL     1      15.376   2.614  -7.523  1.00  0.00    -0.027 A 
ATOM     25  C   UNL     1      15.062   3.961  -6.928  1.00  0.00     0.046 C 
BRANCH  22  26
ATOM     26  N   UNL     1      13.160   1.764  -6.956  1.00  0.00    -0.324 N 
ATOM     27  H   UNL     1      13.042   1.448  -6.008  1.00  0.00     0.170 HD
BRANCH  26  28
ATOM     28  C   UNL     1      11.948   2.263  -7.429  1.00  0.00     0.227 A 
ATOM     29  N   UNL     1      11.695   3.576  -7.458  1.00  0.00    -0.213 NA
ATOM     30  N   UNL     1      11.086   1.345  -7.896  1.00  0.00    -0.221 NA
ATOM     31  C   UNL     1      10.520   4.010  -7.960  1.00  0.00     0.077 A 
ATOM     32  C   UNL     1       9.920   1.799  -8.391  1.00  0.00     0.117 A 
ATOM     33  C   UNL     1       9.582   3.129  -8.451  1.00  0.00     0.049 A 
BRANCH  31  34
ATOM     34  C   UNL     1      10.325   5.467  -7.925  1.00  0.00     0.019 A 
ATOM     35  C   UNL     1      11.371   6.335  -7.581  1.00  0.00     0.013 A 
ATOM     36  C   UNL     1       9.114   6.081  -8.245  1.00  0.00     0.121 A 
ATOM     37  C   UNL     1      11.182   7.715  -7.565  1.00  0.00     0.021 A 
ATOM     38  N   UNL     1       8.889   7.421  -8.234  1.00  0.00    -0.264 NA
ATOM     39  C   UNL     1       9.933   8.205  -7.897  1.00  0.00     0.111 A 
ENDBRANCH  31  34
ENDBRANCH  26  28
ENDBRANCH  22  26
ENDBRANCH   2  19
TORSDOF 7
BEGIN_RES MET A 624
REMARK  4 active torsions:
REMARK  status: ('A' for Active; 'I' for Inactive)
REMARK    1  A    between atoms: CA   and  CB  
REMARK    2  A    between atoms: CB   and  CG  
REMARK    3  A    between atoms: CG   and  SD  
REMARK    4  A    between atoms: SD   and  CE  
ROOT
ATOM      1  CA  MET A 624      14.156  -1.311 -16.529  1.00 37.55     0.090 C 
ENDROOT
BRANCH   1   2
ATOM      2  CB  MET A 624      14.290  -0.416 -17.759  1.00 35.24    -0.030 C 
ATOM      3  HB2 MET A 624      14.986  -0.860 -18.508  1.00  0.00     0.037 H 
ATOM      4  HB1 MET A 624      13.354  -0.419 -18.364  1.00  0.00     0.037 H 
BRANCH   2   5
ATOM      5  CG  MET A 624      14.705   1.000 -17.391  1.00 41.56    -0.021 C 
ATOM      6  HG2 MET A 624      15.759   1.183 -17.708  1.00  0.00     0.049 H 
ATOM      7  HG1 MET A 624      14.813   1.090 -16.286  1.00  0.00     0.049 H 
BRANCH   5   8
ATOM      8  SD  MET A 624      13.638   2.307 -18.015  1.00 46.36    -0.173 SA
BRANCH   8   9
ATOM      9  CE  MET A 624      14.495   2.780 -19.514  1.00 43.21    -0.035 C 
ATOM     10  HE3 MET A 624      13.927   2.615 -20.459  1.00  0.00     0.041 H 
ATOM     11  HE1 MET A 624      15.442   2.198 -19.421  1.00  0.00     0.041 H 
ATOM     12  HE2 MET A 624      14.623   3.878 -19.663  1.00  0.00     0.041 H 
ENDBRANCH   8   9
ENDBRANCH   5   8
ENDBRANCH   2   5
ENDBRANCH   1   2
END_RES MET A 624
BEGIN_RES LEU A 625
REMARK  4 active torsions:
REMARK  status: ('A' for Active; 'I' for Inactive)
REMARK    5  A    between atoms: CA   and  CB  
REMARK    6  A    between atoms: CB   and  CG  
REMARK    7  A    between atoms: CG   and  CD1 
REMARK    8  A    between atoms: CG   and  CD2 
ROOT
ATOM     13  CA  LEU A 625      17.135  -3.624 -16.776  1.00 49.20     0.089 C 
ENDROOT
BRANCH  13  14
ATOM     14  CB  LEU A 625      17.051  -5.150 -16.753  1.00 47.95    -0.035 C 
ATOM     15  HB2 LEU A 625      16.417  -5.498 -17.602  1.00  0.00     0.037 H 
ATOM     16  HB1 LEU A 625      18.039  -5.578 -17.042  1.00  0.00     0.037 H 
BRANCH  14  17
ATOM     17  CG  LEU A 625      16.573  -5.808 -15.462  1.00 41.83    -0.059 C 
ATOM     18  HG  LEU A 625      15.990  -5.061 -14.873  1.00  0.00     0.038 H 
BRANCH  17  19
ATOM     19  CD1 LEU A 625      15.670  -6.972 -15.805  1.00 45.22    -0.073 C 
ATOM     20 3HD1 LEU A 625      15.375  -7.559 -14.904  1.00  0.00     0.028 H 
ATOM     21 2HD1 LEU A 625      14.652  -6.641 -16.117  1.00  0.00     0.028 H 
ATOM     22 1HD1 LEU A 625      16.167  -7.602 -16.579  1.00  0.00     0.028 H 
ENDBRANCH  17  19
BRANCH  17  23
ATOM     23  CD2 LEU A 625      17.761  -6.264 -14.636  1.00 48.58    -0.073 C 
ATOM     24 1HD2 LEU A 625      18.368  -7.003 -15.210  1.00  0.00     0.028 H 
ATOM     25 3HD2 LEU A 625      18.377  -5.405 -14.282  1.00  0.00     0.028 H 
ATOM     26 2HD2 LEU A 625      17.449  -6.663 -13.643  1.00  0.00     0.028 H 
ENDBRANCH  17  23
ENDBRANCH  14  17
ENDBRANCH  13  14
END_RES LEU A 625
BEGIN_RES CYS A 673
REMARK  1 active torsions:
REMARK  status: ('A' for Active; 'I' for Inactive)
REMARK    9  A    between atoms: CA   and  CB  
ROOT
ATOM     27  CA  CYS A 673       6.053  10.339  -6.366  1.00 37.53     0.098 C 
ENDROOT
BRANCH  27  28
ATOM     28  CB  CYS A 673       6.430   9.481  -5.160  1.00 34.59     0.013 C 
ATOM     29  SG  CYS A 673       5.058   8.428  -4.605  1.00 37.22    -0.095 SA
ATOM     30  HB1 CYS A 673       7.344   8.876  -5.367  1.00  0.00     0.053 H 
ATOM     31  HB2 CYS A 673       6.818  10.109  -4.325  1.00  0.00     0.053 H 
ENDBRANCH  27  28
END_RES CYS A 673
ENDMDL
MODEL 6
REMARK VINA RESULT:   -10.250      1.467      3.062
REMARK INTER + INTRA:         -14.310
REMARK INTER:                 -15.382
REMARK INTRA:                   1.072
REMARK UNBOUND:                 0.134
REMARK SMILES Cc1ccc(NC(=O)c2ccc(CN3CCN(C)CC3)cc2)cc1Nc1nccc(-c2cccnc2)n1
REMARK SMILES IDX 8 1 6 2 7 3 9 5 10 6 22 7 11 8 21 9 12 10 13 11 14 12 15 13
REMARK SMILES IDX 20 14 16 15 19 16 17 17 18 18 5 19 23 20 4 21 24 22 3 23
REMARK SMILES IDX 2 24 1 25 25 26 26 28 37 29 27 30 30 31 28 32 29 33 31 34
REMARK SMILES IDX 32 35 36 36 33 37 35 38 34 39
REMARK H PARENT 6 4 25 27
ROOT
ATOM      1  O   UNL     1      17.005   1.385 -10.151  1.00  0.00    -0.269 OA
ATOM      2  N   UNL     1      16.234   0.135  -8.336  1.00  0.00    -0.322 N 
ATOM      3  C   UNL     1      16.689   0.323  -9.627  1.00  0.00     0.255 C 
ATOM      4  H   UNL     1      16.305  -0.800  -7.957  1.00  0.00     0.170 HD
ENDROOT
BRANCH   3   5
ATOM      5  C   UNL     1      16.845  -0.926 -10.417  1.00  0.00     0.040 A 
ATOM      6  C   UNL     1      17.752  -1.915 -10.022  1.00  0.00     0.014 A 
ATOM      7  C   UNL     1      16.021  -1.135 -11.529  1.00  0.00     0.014 A 
ATOM      8  C   UNL     1      17.845  -3.102 -10.753  1.00  0.00     0.006 A 
ATOM      9  C   UNL     1      16.123  -2.321 -12.261  1.00  0.00     0.006 A 
ATOM     10  C   UNL     1      17.039  -3.312 -11.884  1.00  0.00    -0.034 A 
BRANCH  10  11
ATOM     11  C   UNL     1      17.118  -4.619 -12.650  1.00  0.00     0.120 C 
BRANCH  11  12
ATOM     12  N   UNL     1      16.310  -5.693 -12.053  1.00  0.00    -0.297 NA
ATOM     13  C   UNL     1      15.078  -5.163 -11.427  1.00  0.00     0.100 C 
ATOM     14  C   UNL     1      17.095  -6.409 -11.025  1.00  0.00     0.100 C 
ATOM     15  C   UNL     1      14.258  -6.265 -10.719  1.00  0.00     0.099 C 
ATOM     16  C   UNL     1      16.274  -7.514 -10.321  1.00  0.00     0.099 C 
ATOM     17  N   UNL     1      15.049  -6.979  -9.698  1.00  0.00    -0.304 NA
ATOM     18  C   UNL     1      14.266  -8.053  -9.090  1.00  0.00     0.105 C 
ENDBRANCH  11  12
ENDBRANCH  10  11
ENDBRANCH   3   5
BRANCH   2  19
ATOM     19  C   UNL     1      15.742   1.128  -7.465  1.00  0.00     0.043 A 
ATOM     20  C   UNL     1      14.384   1.437  -7.345  1.00  0.00     0.052 A 
ATOM     21  C   UNL     1      16.657   1.775  -6.636  1.00  0.00     0.026 A 
ATOM     22  C   UNL     1      13.907   2.375  -6.410  1.00  0.00     0.046 A 
ATOM     23  C   UNL     1      16.218   2.733  -5.722  1.00  0.00     0.008 A 
ATOM     24  C   UNL     1      14.852   3.037  -5.596  1.00  0.00    -0.027 A 
ATOM     25  C   UNL     1      14.432   4.048  -4.563  1.00  0.00     0.046 C 
BRANCH  22  26
ATOM     26  N   UNL     1      12.533   2.587  -6.208  1.00  0.00    -0.324 N 
ATOM     27  H   UNL     1      12.116   2.209  -5.374  1.00  0.00     0.170 HD
BRANCH  26  28
ATOM     28  C   UNL     1      11.546   3.191  -6.984  1.00  0.00     0.227 A 
ATOM     29  N   UNL     1      11.413   4.521  -7.038  1.00  0.00    -0.213 NA
ATOM     30  N   UNL     1      10.783   2.354  -7.704  1.00  0.00    -0.221 NA
ATOM     31  C   UNL     1      10.465   5.057  -7.834  1.00  0.00     0.077 A 
ATOM     32  C   UNL     1       9.842   2.908  -8.490  1.00  0.00     0.117 A 
ATOM     33  C   UNL     1       9.638   4.262  -8.598  1.00  0.00     0.049 A 
BRANCH  31  34
ATOM     34  C   UNL     1      10.380   6.525  -7.805  1.00  0.00     0.019 A 
ATOM     35  C   UNL     1      11.472   7.310  -7.409  1.00  0.00     0.013 A 
ATOM     36  C   UNL     1       9.237   7.229  -8.182  1.00  0.00     0.121 A 
ATOM     37  C   UNL     1      11.389   8.700  -7.399  1.00  0.00     0.021 A 
ATOM     38  N   UNL     1       9.115   8.582  -8.179  1.00  0.00    -0.264 NA
ATOM     39  C   UNL     1      10.199   9.285  -7.790  1.00  0.00     0.111 A 
ENDBRANCH  31  34
ENDBRANCH  26  28
ENDBRANCH  22  26
ENDBRANCH   2  19
TORSDOF 7
BEGIN_RES MET A 624
REMARK  4 active torsions:
REMARK  status: ('A' for Active; 'I' for Inactive)
REMARK    1  A    between atoms: CA   and  CB  
REMARK    2  A    between atoms: CB   and  CG  
REMARK    3  A    between atoms: CG   and  SD  
REMARK    4  A    between atoms: SD   and  CE  
ROOT
ATOM      1  CA  MET A 624      14.156  -1.311 -16.529  1.00 37.55     0.090 C 
ENDROOT
BRANCH   1   2
ATOM      2  CB  MET A 624      14.290  -0.416 -17.759  1.00 35.24    -0.030 C 
ATOM      3  HB2 MET A 624      15.001  -0.851 -18.500  1.00  0.00     0.037 H 
ATOM      4  HB1 MET A 624      13.361  -0.433 -18.374  1.00  0.00     0.037 H 
BRANCH   2   5
ATOM      5  CG  MET A 624      14.681   1.006 -17.389  1.00 41.56    -0.021 C 
ATOM      6  HG2 MET A 624      15.729   1.209 -17.710  1.00  0.00     0.049 H 
ATOM      7  HG1 MET A 624      14.792   1.096 -16.284  1.00  0.00     0.049 H 
BRANCH   5   8
ATOM      8  SD  MET A 624      13.587   2.295 -18.005  1.00 46.36    -0.173 SA
BRANCH   8   9
ATOM      9  CE  MET A 624      14.665   3.161 -19.142  1.00 43.21    -0.035 C 
ATOM     10  HE3 MET A 624      15.530   2.570 -19.523  1.00  0.00     0.041 H 
ATOM     11  HE1 MET A 624      14.932   4.067 -18.549  1.00  0.00     0.041 H 
ATOM     12  HE2 MET A 624      14.230   3.364 -20.149  1.00  0.00     0.041 H 
ENDBRANCH   8   9
ENDBRANCH   5   8
ENDBRANCH   2   5
ENDBRANCH   1   2
END_RES MET A 624
BEGIN_RES LEU A 625
REMARK  4 active torsions:
REMARK  status: ('A' for Active; 'I' for Inactive)
REMARK    5  A    between atoms: CA   and  CB  
REMARK    6  A    between atoms: CB   and  CG  
REMARK    7  A    between atoms: CG   and  CD1 
REMARK    8  A    between atoms: CG   and  CD2 
ROOT
ATOM     13  CA  LEU A 625      17.135  -3.624 -16.776  1.00 49.20     0.089 C 
ENDROOT
BRANCH  13  14
ATOM     14  CB  LEU A 625      17.051  -5.150 -16.753  1.00 47.95    -0.035 C 
ATOM     15  HB2 LEU A 625      17.482  -5.558 -17.697  1.00  0.00     0.037 H 
ATOM     16  HB1 LEU A 625      17.775  -5.548 -16.004  1.00  0.00     0.037 H 
BRANCH  14  17
ATOM     17  CG  LEU A 625      15.680  -5.774 -16.513  1.00 41.83    -0.059 C 
ATOM     18  HG  LEU A 625      14.960  -4.967 -16.239  1.00  0.00     0.038 H 
BRANCH  17  19
ATOM     19  CD1 LEU A 625      15.209  -6.439 -17.787  1.00 45.22    -0.073 C 
ATOM     20 3HD1 LEU A 625      15.287  -5.763 -18.671  1.00  0.00     0.028 H 
ATOM     21 2HD1 LEU A 625      15.909  -7.234 -18.134  1.00  0.00     0.028 H 
ATOM     22 1HD1 LEU A 625      14.173  -6.822 -17.636  1.00  0.00     0.028 H 
ENDBRANCH  17  19
BRANCH  17  23
ATOM     23  CD2 LEU A 625      15.752  -6.772 -15.372  1.00 48.58    -0.073 C 
ATOM     24 1HD2 LEU A 625      14.892  -6.626 -14.677  1.00  0.00     0.028 H 
ATOM     25 3HD2 LEU A 625      15.815  -7.823 -15.741  1.00  0.00     0.028 H 
ATOM     26 2HD2 LEU A 625      16.730  -6.727 -14.840  1.00  0.00     0.028 H 
ENDBRANCH  17  23
ENDBRANCH  14  17
ENDBRANCH  13  14
END_RES LEU A 625
BEGIN_RES CYS A 673
REMARK  1 active torsions:
REMARK  status: ('A' for Active; 'I' for Inactive)
REMARK    9  A    between atoms: CA   and  CB  
ROOT
ATOM     27  CA  CYS A 673       6.053  10.339  -6.366  1.00 37.53     0.098 C 
ENDROOT
BRANCH  27  28
ATOM     28  CB  CYS A 673       6.430   9.481  -5.160  1.00 34.59     0.013 C 
ATOM     29  SG  CYS A 673       5.024   8.520  -4.529  1.00 37.22    -0.095 SA
ATOM     30  HB1 CYS A 673       7.297   8.820  -5.393  1.00  0.00     0.053 H 
ATOM     31  HB2 CYS A 673       6.889  10.099  -4.354  1.00  0.00     0.053 H 
ENDBRANCH  27  28
END_RES CYS A 673
ENDMDL
MODEL 7
REMARK VINA RESULT:   -10.099      1.068      1.110
REMARK INTER + INTRA:         -14.098
REMARK INTER:                 -14.337
REMARK INTRA:                   0.240
REMARK UNBOUND:                 0.134
REMARK SMILES Cc1ccc(NC(=O)c2ccc(CN3CCN(C)CC3)cc2)cc1Nc1nccc(-c2cccnc2)n1
REMARK SMILES IDX 8 1 6 2 7 3 9 5 10 6 22 7 11 8 21 9 12 10 13 11 14 12 15 13
REMARK SMILES IDX 20 14 16 15 19 16 17 17 18 18 5 19 23 20 4 21 24 22 3 23
REMARK SMILES IDX 2 24 1 25 25 26 26 28 37 29 27 30 30 31 28 32 29 33 31 34
REMARK SMILES IDX 32 35 36 36 33 37 35 38 34 39
REMARK H PARENT 6 4 25 27
ROOT
ATOM      1  O   UNL     1      17.044   1.738 -10.113  1.00  0.00    -0.269 OA
ATOM      2  N   UNL     1      16.408   1.015  -7.987  1.00  0.00    -0.322 N 
ATOM      3  C   UNL     1      16.737   0.857  -9.319  1.00  0.00     0.255 C 
ATOM      4  H   UNL     1      16.475   0.195  -7.398  1.00  0.00     0.170 HD
ENDROOT
BRANCH   3   5
ATOM      5  C   UNL     1      16.755  -0.553  -9.789  1.00  0.00     0.040 A 
ATOM      6  C   UNL     1      17.110  -1.593  -8.923  1.00  0.00     0.014 A 
ATOM      7  C   UNL     1      16.347  -0.840 -11.096  1.00  0.00     0.014 A 
ATOM      8  C   UNL     1      17.072  -2.914  -9.374  1.00  0.00     0.006 A 
ATOM      9  C   UNL     1      16.318  -2.163 -11.545  1.00  0.00     0.006 A 
ATOM     10  C   UNL     1      16.686  -3.211 -10.691  1.00  0.00    -0.034 A 
BRANCH  10  11
ATOM     11  C   UNL     1      16.610  -4.651 -11.162  1.00  0.00     0.120 C 
BRANCH  11  12
ATOM     12  N   UNL     1      16.695  -5.627 -10.066  1.00  0.00    -0.297 NA
ATOM     13  C   UNL     1      17.368  -6.873 -10.497  1.00  0.00     0.100 C 
ATOM     14  C   UNL     1      15.339  -5.964  -9.579  1.00  0.00     0.100 C 
ATOM     15  C   UNL     1      17.390  -7.944  -9.383  1.00  0.00     0.099 C 
ATOM     16  C   UNL     1      15.364  -7.033  -8.463  1.00  0.00     0.099 C 
ATOM     17  N   UNL     1      16.035  -8.272  -8.899  1.00  0.00    -0.304 NA
ATOM     18  C   UNL     1      16.093  -9.241  -7.807  1.00  0.00     0.105 C 
ENDBRANCH  11  12
ENDBRANCH  10  11
ENDBRANCH   3   5
BRANCH   2  19
ATOM     19  C   UNL     1      16.051   2.219  -7.345  1.00  0.00     0.043 A 
ATOM     20  C   UNL     1      15.204   3.170  -7.919  1.00  0.00     0.052 A 
ATOM     21  C   UNL     1      16.515   2.423  -6.047  1.00  0.00     0.026 A 
ATOM     22  C   UNL     1      14.797   4.326  -7.228  1.00  0.00     0.046 A 
ATOM     23  C   UNL     1      16.155   3.575  -5.348  1.00  0.00     0.008 A 
ATOM     24  C   UNL     1      15.297   4.528  -5.922  1.00  0.00    -0.027 A 
ATOM     25  C   UNL     1      14.908   5.731  -5.106  1.00  0.00     0.046 C 
BRANCH  22  26
ATOM     26  N   UNL     1      13.846   5.213  -7.762  1.00  0.00    -0.324 N 
ATOM     27  H   UNL     1      14.157   6.134  -8.024  1.00  0.00     0.170 HD
BRANCH  26  28
ATOM     28  C   UNL     1      12.471   5.115  -7.964  1.00  0.00     0.227 A 
ATOM     29  N   UNL     1      11.847   3.932  -7.972  1.00  0.00    -0.213 NA
ATOM     30  N   UNL     1      11.821   6.281  -8.096  1.00  0.00    -0.221 NA
ATOM     31  C   UNL     1      10.508   3.894  -8.135  1.00  0.00     0.077 A 
ATOM     32  C   UNL     1      10.486   6.222  -8.259  1.00  0.00     0.117 A 
ATOM     33  C   UNL     1       9.772   5.049  -8.284  1.00  0.00     0.049 A 
BRANCH  31  34
ATOM     34  C   UNL     1       9.919   2.547  -8.155  1.00  0.00     0.019 A 
ATOM     35  C   UNL     1      10.108   1.684  -9.243  1.00  0.00     0.013 A 
ATOM     36  C   UNL     1       9.160   2.032  -7.103  1.00  0.00     0.121 A 
ATOM     37  C   UNL     1       9.559   0.404  -9.247  1.00  0.00     0.021 A 
ATOM     38  N   UNL     1       8.603   0.794  -7.073  1.00  0.00    -0.264 NA
ATOM     39  C   UNL     1       8.821   0.008  -8.148  1.00  0.00     0.111 A 
ENDBRANCH  31  34
ENDBRANCH  26  28
ENDBRANCH  22  26
ENDBRANCH   2  19
TORSDOF 7
BEGIN_RES MET A 624
REMARK  4 active torsions:
REMARK  status: ('A' for Active; 'I' for Inactive)
REMARK    1  A    between atoms: CA   and  CB  
REMARK    2  A    between atoms: CB   and  CG  
REMARK    3  A    between atoms: CG   and  SD  
REMARK    4  A    between atoms: SD   and  CE  
ROOT
ATOM      1  CA  MET A 624      14.156  -1.311 -16.529  1.00 37.55     0.090 C 
ENDROOT
BRANCH   1   2
ATOM      2  CB  MET A 624      14.290  -0.416 -17.759  1.00 35.24    -0.030 C 
ATOM      3  HB2 MET A 624      14.727  -0.974 -18.620  1.00  0.00     0.037 H 
ATOM      4  HB1 MET A 624      13.293  -0.174 -18.194  1.00  0.00     0.037 H 
BRANCH   2   5
ATOM      5  CG  MET A 624      15.082   0.847 -17.461  1.00 41.56    -0.021 C 
ATOM      6  HG2 MET A 624      16.063   0.816 -17.992  1.00  0.00     0.049 H 
ATOM      7  HG1 MET A 624      15.430   0.838 -16.402  1.00  0.00     0.049 H 
BRANCH   5   8
ATOM      8  SD  MET A 624      14.238   2.394 -17.819  1.00 46.36    -0.173 SA
BRANCH   8   9
ATOM      9  CE  MET A 624      14.334   2.447 -19.606  1.00 43.21    -0.035 C 
ATOM     10  HE3 MET A 624      14.711   1.516 -20.090  1.00  0.00     0.041 H 
ATOM     11  HE1 MET A 624      14.961   3.355 -19.768  1.00  0.00     0.041 H 
ATOM     12  HE2 MET A 624      13.352   2.445 -20.136  1.00  0.00     0.041 H 
ENDBRANCH   8   9
ENDBRANCH   5   8
ENDBRANCH   2   5
ENDBRANCH   1   2
END_RES MET A 624
BEGIN_RES LEU A 625
REMARK  4 active torsions:
REMARK  status: ('A' for Active; 'I' for Inactive)
REMARK    5  A    between atoms: CA   and  CB  
REMARK    6  A    between atoms: CB   and  CG  
REMARK    7  A    between atoms: CG   and  CD1 
REMARK    8  A    between atoms: CG   and  CD2 
ROOT
ATOM     13  CA  LEU A 625      17.135  -3.624 -16.776  1.00 49.20     0.089 C 
ENDROOT
BRANCH  13  14
ATOM     14  CB  LEU A 625      17.051  -5.150 -16.753  1.00 47.95    -0.035 C 
ATOM     15  HB2 LEU A 625      16.549  -5.506 -17.682  1.00  0.00     0.037 H 
ATOM     16  HB1 LEU A 625      18.071  -5.578 -16.891  1.00  0.00     0.037 H 
BRANCH  14  17
ATOM     17  CG  LEU A 625      16.390  -5.799 -15.541  1.00 41.83    -0.059 C 
ATOM     18  HG  LEU A 625      15.686  -5.067 -15.080  1.00  0.00     0.038 H 
BRANCH  17  19
ATOM     19  CD1 LEU A 625      15.607  -7.011 -15.994  1.00 45.22    -0.073 C 
ATOM     20 3HD1 LEU A 625      14.505  -6.835 -15.975  1.00  0.00     0.028 H 
ATOM     21 2HD1 LEU A 625      15.716  -7.201 -17.088  1.00  0.00     0.028 H 
ATOM     22 1HD1 LEU A 625      15.908  -7.890 -15.378  1.00  0.00     0.028 H 
ENDBRANCH  17  19
BRANCH  17  23
ATOM     23  CD2 LEU A 625      17.440  -6.181 -14.514  1.00 48.58    -0.073 C 
ATOM     24 1HD2 LEU A 625      17.264  -7.221 -14.152  1.00  0.00     0.028 H 
ATOM     25 3HD2 LEU A 625      18.475  -6.047 -14.907  1.00  0.00     0.028 H 
ATOM     26 2HD2 LEU A 625      17.487  -5.450 -13.674  1.00  0.00     0.028 H 
ENDBRANCH  17  23
ENDBRANCH  14  17
ENDBRANCH  13  14
END_RES LEU A 625
BEGIN_RES CYS A 673
REMARK  1 active torsions:
REMARK  status: ('A' for Active; 'I' for Inactive)
REMARK    9  A    between atoms: CA   and  CB  
ROOT
ATOM     27  CA  CYS A 673       6.053  10.339  -6.366  1.00 37.53     0.098 C 
ENDROOT
BRANCH  27  28
ATOM     28  CB  CYS A 673       6.430   9.481  -5.160  1.00 34.59     0.013 C 
ATOM     29  SG  CYS A 673       5.025   8.518  -4.530  1.00 37.22    -0.095 SA
ATOM     30  HB1 CYS A 673       7.298   8.821  -5.392  1.00  0.00     0.053 H 
ATOM     31  HB2 CYS A 673       6.887  10.100  -4.354  1.00  0.00     0.053 H 
ENDBRANCH  27  28
END_RES CYS A 673
ENDMDL
MODEL 8
REMARK VINA RESULT:    -9.944      2.251      3.115
REMARK INTER + INTRA:         -13.879
REMARK INTER:                 -14.041
REMARK INTRA:                   0.162
REMARK UNBOUND:                 0.134
REMARK SMILES Cc1ccc(NC(=O)c2ccc(CN3CCN(C)CC3)cc2)cc1Nc1nccc(-c2cccnc2)n1
REMARK SMILES IDX 8 1 6 2 7 3 9 5 10 6 22 7 11 8 21 9 12 10 13 11 14 12 15 13
REMARK SMILES IDX 20 14 16 15 19 16 17 17 18 18 5 19 23 20 4 21 24 22 3 23
REMARK SMILES IDX 2 24 1 25 25 26 26 28 37 29 27 30 30 31 28 32 29 33 31 34
REMARK SMILES IDX 32 35 36 36 33 37 35 38 34 39
REMARK H PARENT 6 4 25 27
ROOT
ATOM      1  O   UNL     1      16.564  -0.893 -11.295  1.00  0.00    -0.269 OA
ATOM      2  N   UNL     1      16.782  -1.185  -8.989  1.00  0.00    -0.322 N 
ATOM      3  C   UNL     1      16.695  -1.601 -10.304  1.00  0.00     0.255 C 
ATOM      4  H   UNL     1      17.185  -1.837  -8.328  1.00  0.00     0.170 HD
ENDROOT
BRANCH   3   5
ATOM      5  C   UNL     1      16.825  -3.069 -10.499  1.00  0.00     0.040 A 
ATOM      6  C   UNL     1      17.620  -3.837  -9.642  1.00  0.00     0.014 A 
ATOM      7  C   UNL     1      16.087  -3.689 -11.512  1.00  0.00     0.014 A 
ATOM      8  C   UNL     1      17.688  -5.221  -9.816  1.00  0.00     0.006 A 
ATOM      9  C   UNL     1      16.164  -5.073 -11.687  1.00  0.00     0.006 A 
ATOM     10  C   UNL     1      16.969  -5.852 -10.844  1.00  0.00    -0.034 A 
BRANCH  10  11
ATOM     11  C   UNL     1      17.018  -7.359 -11.003  1.00  0.00     0.120 C 
BRANCH  11  12
ATOM     12  N   UNL     1      17.350  -8.065  -9.756  1.00  0.00    -0.297 NA
ATOM     13  C   UNL     1      18.027  -9.353 -10.023  1.00  0.00     0.100 C 
ATOM     14  C   UNL     1      16.120  -8.327  -8.977  1.00  0.00     0.100 C 
ATOM     15  C   UNL     1      18.307 -10.150  -8.728  1.00  0.00     0.099 C 
ATOM     16  C   UNL     1      16.404  -9.120  -7.681  1.00  0.00     0.099 C 
ATOM     17  N   UNL     1      17.077 -10.404  -7.954  1.00  0.00    -0.304 NA
ATOM     18  C   UNL     1      17.381 -11.104  -6.708  1.00  0.00     0.105 C 
ENDBRANCH  11  12
ENDBRANCH  10  11
ENDBRANCH   3   5
BRANCH   2  19
ATOM     19  C   UNL     1      16.430   0.083  -8.483  1.00  0.00     0.043 A 
ATOM     20  C   UNL     1      15.182   0.363  -7.920  1.00  0.00     0.052 A 
ATOM     21  C   UNL     1      17.409   1.075  -8.483  1.00  0.00     0.026 A 
ATOM     22  C   UNL     1      14.881   1.612  -7.347  1.00  0.00     0.046 A 
ATOM     23  C   UNL     1      17.130   2.334  -7.951  1.00  0.00     0.008 A 
ATOM     24  C   UNL     1      15.877   2.613  -7.378  1.00  0.00    -0.027 A 
ATOM     25  C   UNL     1      15.646   3.975  -6.782  1.00  0.00     0.046 C 
BRANCH  22  26
ATOM     26  N   UNL     1      13.671   1.846  -6.672  1.00  0.00    -0.324 N 
ATOM     27  H   UNL     1      13.639   1.662  -5.683  1.00  0.00     0.170 HD
BRANCH  26  28
ATOM     28  C   UNL     1      12.408   2.243  -7.107  1.00  0.00     0.227 A 
ATOM     29  N   UNL     1      11.388   1.379  -7.180  1.00  0.00    -0.213 NA
ATOM     30  N   UNL     1      12.277   3.548  -7.393  1.00  0.00    -0.221 NA
ATOM     31  C   UNL     1      10.176   1.822  -7.572  1.00  0.00     0.077 A 
ATOM     32  C   UNL     1      11.060   3.969  -7.784  1.00  0.00     0.117 A 
ATOM     33  C   UNL     1       9.966   3.146  -7.889  1.00  0.00     0.049 A 
BRANCH  31  34
ATOM     34  C   UNL     1       9.128   0.793  -7.645  1.00  0.00     0.019 A 
ATOM     35  C   UNL     1       8.040   0.797  -6.761  1.00  0.00     0.013 A 
ATOM     36  C   UNL     1       9.130  -0.230  -8.593  1.00  0.00     0.121 A 
ATOM     37  C   UNL     1       7.043  -0.172  -6.847  1.00  0.00     0.021 A 
ATOM     38  N   UNL     1       8.182  -1.196  -8.704  1.00  0.00    -0.264 NA
ATOM     39  C   UNL     1       7.157  -1.140  -7.827  1.00  0.00     0.111 A 
ENDBRANCH  31  34
ENDBRANCH  26  28
ENDBRANCH  22  26
ENDBRANCH   2  19
TORSDOF 7
BEGIN_RES MET A 624
REMARK  4 active torsions:
REMARK  status: ('A' for Active; 'I' for Inactive)
REMARK    1  A    between atoms: CA   and  CB  
REMARK    2  A    between atoms: CB   and  CG  
REMARK    3  A    between atoms: CG   and  SD  
REMARK    4  A    between atoms: SD   and  CE  
ROOT
ATOM      1  CA  MET A 624      14.156  -1.311 -16.529  1.00 37.55     0.090 C 
ENDROOT
BRANCH   1   2
ATOM      2  CB  MET A 624      14.290  -0.416 -17.759  1.00 35.24    -0.030 C 
ATOM      3  HB2 MET A 624      14.982  -0.863 -18.511  1.00  0.00     0.037 H 
ATOM      4  HB1 MET A 624      13.352  -0.414 -18.361  1.00  0.00     0.037 H 
BRANCH   2   5
ATOM      5  CG  MET A 624      14.714   0.997 -17.392  1.00 41.56    -0.021 C 
ATOM      6  HG2 MET A 624      15.749   1.193 -17.759  1.00  0.00     0.049 H 
ATOM      7  HG1 MET A 624      14.876   1.073 -16.292  1.00  0.00     0.049 H 
BRANCH   5   8
ATOM      8  SD  MET A 624      13.608   2.305 -17.943  1.00 46.36    -0.173 SA
BRANCH   8   9
ATOM      9  CE  MET A 624      14.619   3.132 -19.167  1.00 43.21    -0.035 C 
ATOM     10  HE3 MET A 624      15.671   2.770 -19.240  1.00  0.00     0.041 H 
ATOM     11  HE1 MET A 624      14.504   4.200 -18.865  1.00  0.00     0.041 H 
ATOM     12  HE2 MET A 624      14.361   2.907 -20.229  1.00  0.00     0.041 H 
ENDBRANCH   8   9
ENDBRANCH   5   8
ENDBRANCH   2   5
ENDBRANCH   1   2
END_RES MET A 624
BEGIN_RES LEU A 625
REMARK  4 active torsions:
REMARK  status: ('A' for Active; 'I' for Inactive)
REMARK    5  A    between atoms: CA   and  CB  
REMARK    6  A    between atoms: CB   and  CG  
REMARK    7  A    between atoms: CG   and  CD1 
REMARK    8  A    between atoms: CG   and  CD2 
ROOT
ATOM     13  CA  LEU A 625      17.135  -3.624 -16.776  1.00 49.20     0.089 C 
ENDROOT
BRANCH  13  14
ATOM     14  CB  LEU A 625      17.051  -5.150 -16.753  1.00 47.95    -0.035 C 
ATOM     15  HB2 LEU A 625      16.437  -5.499 -17.615  1.00  0.00     0.037 H 
ATOM     16  HB1 LEU A 625      18.045  -5.578 -17.019  1.00  0.00     0.037 H 
BRANCH  14  17
ATOM     17  CG  LEU A 625      16.544  -5.806 -15.473  1.00 41.83    -0.059 C 
ATOM     18  HG  LEU A 625      15.938  -5.063 -14.903  1.00  0.00     0.038 H 
BRANCH  17  19
ATOM     19  CD1 LEU A 625      15.662  -6.981 -15.835  1.00 45.22    -0.073 C 
ATOM     20 3HD1 LEU A 625      16.228  -7.793 -16.350  1.00  0.00     0.028 H 
ATOM     21 2HD1 LEU A 625      15.338  -7.559 -14.938  1.00  0.00     0.028 H 
ATOM     22 1HD1 LEU A 625      14.799  -6.616 -16.439  1.00  0.00     0.028 H 
ENDBRANCH  17  19
BRANCH  17  23
ATOM     23  CD2 LEU A 625      17.713  -6.247 -14.612  1.00 48.58    -0.073 C 
ATOM     24 1HD2 LEU A 625      18.114  -5.382 -14.034  1.00  0.00     0.028 H 
ATOM     25 3HD2 LEU A 625      17.442  -7.102 -13.948  1.00  0.00     0.028 H 
ATOM     26 2HD2 LEU A 625      18.506  -6.750 -15.212  1.00  0.00     0.028 H 
ENDBRANCH  17  23
ENDBRANCH  14  17
ENDBRANCH  13  14
END_RES LEU A 625
BEGIN_RES CYS A 673
REMARK  1 active torsions:
REMARK  status: ('A' for Active; 'I' for Inactive)
REMARK    9  A    between atoms: CA   and  CB  
ROOT
ATOM     27  CA  CYS A 673       6.053  10.339  -6.366  1.00 37.53     0.098 C 
ENDROOT
BRANCH  27  28
ATOM     28  CB  CYS A 673       6.430   9.481  -5.160  1.00 34.59     0.013 C 
ATOM     29  SG  CYS A 673       5.013   8.559  -4.497  1.00 37.22    -0.095 SA
ATOM     30  HB1 CYS A 673       7.277   8.797  -5.402  1.00  0.00     0.053 H 
ATOM     31  HB2 CYS A 673       6.917  10.094  -4.367  1.00  0.00     0.053 H 
ENDBRANCH  27  28
END_RES CYS A 673
ENDMDL
MODEL 9
REMARK VINA RESULT:    -9.897      2.662      3.830
REMARK INTER + INTRA:         -13.813
REMARK INTER:                 -13.947
REMARK INTRA:                   0.134
REMARK UNBOUND:                 0.134
REMARK SMILES Cc1ccc(NC(=O)c2ccc(CN3CCN(C)CC3)cc2)cc1Nc1nccc(-c2cccnc2)n1
REMARK SMILES IDX 8 1 6 2 7 3 9 5 10 6 22 7 11 8 21 9 12 10 13 11 14 12 15 13
REMARK SMILES IDX 20 14 16 15 19 16 17 17 18 18 5 19 23 20 4 21 24 22 3 23
REMARK SMILES IDX 2 24 1 25 25 26 26 28 37 29 27 30 30 31 28 32 29 33 31 34
REMARK SMILES IDX 32 35 36 36 33 37 35 38 34 39
REMARK H PARENT 6 4 25 27
ROOT
ATOM      1  O   UNL     1      14.882   1.990  -6.041  1.00  0.00    -0.269 OA
ATOM      2  N   UNL     1      16.613   3.398  -6.725  1.00  0.00    -0.322 N 
ATOM      3  C   UNL     1      15.824   2.265  -6.775  1.00  0.00     0.255 C 
ATOM      4  H   UNL     1      17.138   3.628  -7.559  1.00  0.00     0.170 HD
ENDROOT
BRANCH   3   5
ATOM      5  C   UNL     1      16.155   1.328  -7.880  1.00  0.00     0.040 A 
ATOM      6  C   UNL     1      17.015   1.714  -8.913  1.00  0.00     0.014 A 
ATOM      7  C   UNL     1      15.648   0.025  -7.842  1.00  0.00     0.014 A 
ATOM      8  C   UNL     1      17.350   0.800  -9.914  1.00  0.00     0.006 A 
ATOM      9  C   UNL     1      15.980  -0.884  -8.849  1.00  0.00     0.006 A 
ATOM     10  C   UNL     1      16.829  -0.504  -9.898  1.00  0.00    -0.034 A 
BRANCH  10  11
ATOM     11  C   UNL     1      17.227  -1.503 -10.967  1.00  0.00     0.120 C 
BRANCH  11  12
ATOM     12  N   UNL     1      16.462  -2.757 -10.905  1.00  0.00    -0.297 NA
ATOM     13  C   UNL     1      17.276  -3.864 -10.354  1.00  0.00     0.100 C 
ATOM     14  C   UNL     1      15.996  -3.137 -12.256  1.00  0.00     0.100 C 
ATOM     15  C   UNL     1      16.517  -5.211 -10.360  1.00  0.00     0.099 C 
ATOM     16  C   UNL     1      15.235  -4.483 -12.259  1.00  0.00     0.099 C 
ATOM     17  N   UNL     1      16.051  -5.581 -11.710  1.00  0.00    -0.304 NA
ATOM     18  C   UNL     1      15.286  -6.826 -11.674  1.00  0.00     0.105 C 
ENDBRANCH  11  12
ENDBRANCH  10  11
ENDBRANCH   3   5
BRANCH   2  19
ATOM     19  C   UNL     1      16.711   4.309  -5.654  1.00  0.00     0.043 A 
ATOM     20  C   UNL     1      15.888   5.431  -5.524  1.00  0.00     0.052 A 
ATOM     21  C   UNL     1      17.629   4.025  -4.644  1.00  0.00     0.026 A 
ATOM     22  C   UNL     1      15.949   6.281  -4.404  1.00  0.00     0.046 A 
ATOM     23  C   UNL     1      17.736   4.867  -3.537  1.00  0.00     0.008 A 
ATOM     24  C   UNL     1      16.902   5.990  -3.403  1.00  0.00    -0.027 A 
ATOM     25  C   UNL     1      17.032   6.840  -2.167  1.00  0.00     0.046 C 
BRANCH  22  26
ATOM     26  N   UNL     1      15.035   7.332  -4.221  1.00  0.00    -0.324 N 
ATOM     27  H   UNL     1      14.715   7.519  -3.285  1.00  0.00     0.170 HD
BRANCH  26  28
ATOM     28  C   UNL     1      14.386   8.186  -5.110  1.00  0.00     0.227 A 
ATOM     29  N   UNL     1      13.252   7.827  -5.724  1.00  0.00    -0.213 NA
ATOM     30  N   UNL     1      14.944   9.396  -5.262  1.00  0.00    -0.221 NA
ATOM     31  C   UNL     1      12.643   8.705  -6.548  1.00  0.00     0.077 A 
ATOM     32  C   UNL     1      14.322  10.257  -6.089  1.00  0.00     0.117 A 
ATOM     33  C   UNL     1      13.160   9.964  -6.761  1.00  0.00     0.049 A 
BRANCH  31  34
ATOM     34  C   UNL     1      11.419   8.209  -7.195  1.00  0.00     0.019 A 
ATOM     35  C   UNL     1      11.335   6.900  -7.690  1.00  0.00     0.013 A 
ATOM     36  C   UNL     1      10.269   8.984  -7.343  1.00  0.00     0.121 A 
ATOM     37  C   UNL     1      10.167   6.434  -8.288  1.00  0.00     0.021 A 
ATOM     38  N   UNL     1       9.115   8.568  -7.926  1.00  0.00    -0.264 NA
ATOM     39  C   UNL     1       9.092   7.298  -8.382  1.00  0.00     0.111 A 
ENDBRANCH  31  34
ENDBRANCH  26  28
ENDBRANCH  22  26
ENDBRANCH   2  19
TORSDOF 7
BEGIN_RES MET A 624
REMARK  4 active torsions:
REMARK  status: ('A' for Active; 'I' for Inactive)
REMARK    1  A    between atoms: CA   and  CB  
REMARK    2  A    between atoms: CB   and  CG  
REMARK    3  A    between atoms: CG   and  SD  
REMARK    4  A    between atoms: SD   and  CE  
ROOT
ATOM      1  CA  MET A 624      14.156  -1.311 -16.529  1.00 37.55     0.090 C 
ENDROOT
BRANCH   1   2
ATOM      2  CB  MET A 624      14.290  -0.416 -17.759  1.00 35.24    -0.030 C 
ATOM      3  HB2 MET A 624      14.720  -0.976 -18.622  1.00  0.00     0.037 H 
ATOM      4  HB1 MET A 624      13.292  -0.169 -18.189  1.00  0.00     0.037 H 
BRANCH   2   5
ATOM      5  CG  MET A 624      15.091   0.842 -17.464  1.00 41.56    -0.021 C 
ATOM      6  HG2 MET A 624      16.034   0.843 -18.059  1.00  0.00     0.049 H 
ATOM      7  HG1 MET A 624      15.509   0.795 -16.432  1.00  0.00     0.049 H 
BRANCH   5   8
ATOM      8  SD  MET A 624      14.212   2.394 -17.701  1.00 46.36    -0.173 SA
BRANCH   8   9
ATOM      9  CE  MET A 624      14.218   2.535 -19.486  1.00 43.21    -0.035 C 
ATOM     10  HE3 MET A 624      14.825   1.770 -20.023  1.00  0.00     0.041 H 
ATOM     11  HE1 MET A 624      14.553   3.590 -19.624  1.00  0.00     0.041 H 
ATOM     12  HE2 MET A 624      13.257   2.272 -19.988  1.00  0.00     0.041 H 
ENDBRANCH   8   9
ENDBRANCH   5   8
ENDBRANCH   2   5
ENDBRANCH   1   2
END_RES MET A 624
BEGIN_RES LEU A 625
REMARK  4 active torsions:
REMARK  status: ('A' for Active; 'I' for Inactive)
REMARK    5  A    between atoms: CA   and  CB  
REMARK    6  A    between atoms: CB   and  CG  
REMARK    7  A    between atoms: CG   and  CD1 
REMARK    8  A    between atoms: CG   and  CD2 
ROOT
ATOM     13  CA  LEU A 625      17.135  -3.624 -16.776  1.00 49.20     0.089 C 
ENDROOT
BRANCH  13  14
ATOM     14  CB  LEU A 625      17.051  -5.150 -16.753  1.00 47.95    -0.035 C 
ATOM     15  HB2 LEU A 625      16.438  -5.499 -17.617  1.00  0.00     0.037 H 
ATOM     16  HB1 LEU A 625      18.046  -5.578 -17.017  1.00  0.00     0.037 H 
BRANCH  14  17
ATOM     17  CG  LEU A 625      16.541  -5.806 -15.474  1.00 41.83    -0.059 C 
ATOM     18  HG  LEU A 625      15.948  -5.058 -14.898  1.00  0.00     0.038 H 
BRANCH  17  19
ATOM     19  CD1 LEU A 625      15.643  -6.967 -15.837  1.00 45.22    -0.073 C 
ATOM     20 3HD1 LEU A 625      15.194  -7.453 -14.939  1.00  0.00     0.028 H 
ATOM     21 2HD1 LEU A 625      14.697  -6.635 -16.325  1.00  0.00     0.028 H 
ATOM     22 1HD1 LEU A 625      16.215  -7.687 -16.468  1.00  0.00     0.028 H 
ENDBRANCH  17  19
BRANCH  17  23
ATOM     23  CD2 LEU A 625      17.708  -6.266 -14.621  1.00 48.58    -0.073 C 
ATOM     24 1HD2 LEU A 625      17.371  -6.451 -13.574  1.00  0.00     0.028 H 
ATOM     25 3HD2 LEU A 625      18.218  -7.157 -15.057  1.00  0.00     0.028 H 
ATOM     26 2HD2 LEU A 625      18.563  -5.552 -14.663  1.00  0.00     0.028 H 
ENDBRANCH  17  23
ENDBRANCH  14  17
ENDBRANCH  13  14
END_RES LEU A 625
BEGIN_RES CYS A 673
REMARK  1 active torsions:
REMARK  status: ('A' for Active; 'I' for Inactive)
REMARK    9  A    between atoms: CA   and  CB  
ROOT
ATOM     27  CA  CYS A 673       6.053  10.339  -6.366  1.00 37.53     0.098 C 
ENDROOT
BRANCH  27  28
ATOM     28  CB  CYS A 673       6.430   9.481  -5.160  1.00 34.59     0.013 C 
ATOM     29  SG  CYS A 673       5.024   8.521  -4.528  1.00 37.22    -0.095 SA
ATOM     30  HB1 CYS A 673       7.297   8.819  -5.393  1.00  0.00     0.053 H 
ATOM     31  HB2 CYS A 673       6.890  10.099  -4.355  1.00  0.00     0.053 H 
ENDBRANCH  27  28
END_RES CYS A 673
ENDMDL
