MODEL 1
REMARK VINA RESULT:   -11.087      0.000      0.000
REMARK INTER + INTRA:         -15.678
REMARK INTER:                 -15.731
REMARK INTRA:                   0.053
REMARK UNBOUND:                -0.054
REMARK SMILES Cc1cn(-c2cc(NC(=O)c3ccc(C)c(Nc4nccc(-c5cccnc5)n4)c3)cc(C(F)(F)F)c2)cn1
REMARK SMILES IDX 11 1 16 2 14 3 30 4 12 5 13 6 15 7 9 8 8 9 10 10 7 12 32 13
REMARK SMILES IDX 37 14 31 15 5 16 6 17 33 18 34 19 35 20 36 21 4 22 3 23
REMARK SMILES IDX 38 24 2 25 39 26 1 27 17 28 18 30 29 31 19 32 22 33 20 34
REMARK SMILES IDX 21 35 23 36 24 37 28 38 25 39 27 40 26 41
REMARK H PARENT 8 11 17 29
ROOT
ATOM      1  C   UNL     1      15.520   0.345  -7.824  1.00  0.00     0.042 A 
ATOM      2  C   UNL     1      16.918  -0.924  -9.379  1.00  0.00     0.045 A 
ATOM      3  C   UNL     1      17.951  -0.934  -8.416  1.00  0.00    -0.027 A 
ATOM      4  C   UNL     1      15.712  -0.284  -9.060  1.00  0.00     0.040 A 
ATOM      5  C   UNL     1      16.544   0.315  -6.875  1.00  0.00     0.014 A 
ATOM      6  C   UNL     1      17.750  -0.319  -7.170  1.00  0.00     0.006 A 
ATOM      7  C   UNL     1      19.280  -1.585  -8.694  1.00  0.00     0.046 C 
ENDROOT
BRANCH   1   8
ATOM      8  C   UNL     1      14.232   1.007  -7.460  1.00  0.00     0.255 C 
ATOM      9  N   UNL     1      13.159   0.717  -8.285  1.00  0.00    -0.322 N 
ATOM     10  O   UNL     1      14.216   1.749  -6.485  1.00  0.00    -0.269 OA
ATOM     11  H   UNL     1      13.347   0.175  -9.118  1.00  0.00     0.170 HD
BRANCH   9  12
ATOM     12  C   UNL     1      11.815   1.106  -8.112  1.00  0.00     0.044 A 
ATOM     13  C   UNL     1       9.440   0.669  -7.829  1.00  0.00     0.060 A 
ATOM     14  C   UNL     1       9.189   2.052  -7.809  1.00  0.00     0.039 A 
ATOM     15  C   UNL     1      10.756   0.210  -7.995  1.00  0.00     0.039 A 
ATOM     16  C   UNL     1      10.241   2.968  -7.943  1.00  0.00     0.049 A 
ATOM     17  C   UNL     1      11.552   2.483  -8.078  1.00  0.00     0.052 A 
BRANCH  13  18
ATOM     18  C   UNL     1       8.316  -0.328  -7.719  1.00  0.00     0.416 C 
ATOM     19  F   UNL     1       8.151  -1.066  -8.855  1.00  0.00    -0.166 F 
ATOM     20  F   UNL     1       8.513  -1.232  -6.720  1.00  0.00    -0.166 F 
ATOM     21  F   UNL     1       7.106   0.246  -7.478  1.00  0.00    -0.166 F 
ENDBRANCH  13  18
BRANCH  16  22
ATOM     22  N   UNL     1       9.990   4.370  -7.961  1.00  0.00    -0.306 N 
ATOM     23  C   UNL     1      10.905   5.386  -7.781  1.00  0.00     0.116 A 
ATOM     24  C   UNL     1       8.787   5.004  -8.183  1.00  0.00     0.204 A 
ATOM     25  C   UNL     1      10.210   6.569  -7.902  1.00  0.00     0.056 A 
ATOM     26  N   UNL     1       8.889   6.315  -8.147  1.00  0.00    -0.242 NA
ATOM     27  C   UNL     1      10.706   7.958  -7.807  1.00  0.00     0.068 C 
ENDBRANCH  16  22
ENDBRANCH   9  12
ENDBRANCH   1   8
BRANCH   2  28
ATOM     28  N   UNL     1      17.117  -1.490 -10.645  1.00  0.00    -0.324 N 
ATOM     29  H   UNL     1      17.515  -0.906 -11.364  1.00  0.00     0.170 HD
BRANCH  28  30
ATOM     30  C   UNL     1      16.633  -2.662 -11.221  1.00  0.00     0.227 A 
ATOM     31  N   UNL     1      16.932  -3.867 -10.711  1.00  0.00    -0.213 NA
ATOM     32  N   UNL     1      15.801  -2.488 -12.257  1.00  0.00    -0.221 NA
ATOM     33  C   UNL     1      16.349  -4.961 -11.256  1.00  0.00     0.077 A 
ATOM     34  C   UNL     1      15.249  -3.589 -12.792  1.00  0.00     0.117 A 
ATOM     35  C   UNL     1      15.486  -4.857 -12.326  1.00  0.00     0.049 A 
BRANCH  33  36
ATOM     36  C   UNL     1      16.692  -6.240 -10.605  1.00  0.00     0.019 A 
ATOM     37  C   UNL     1      17.371  -7.285 -11.250  1.00  0.00     0.013 A 
ATOM     38  C   UNL     1      16.346  -6.482  -9.273  1.00  0.00     0.121 A 
ATOM     39  C   UNL     1      17.655  -8.475 -10.574  1.00  0.00     0.021 A 
ATOM     40  N   UNL     1      16.629  -7.613  -8.579  1.00  0.00    -0.264 NA
ATOM     41  C   UNL     1      17.267  -8.590  -9.251  1.00  0.00     0.111 A 
ENDBRANCH  33  36
ENDBRANCH  28  30
ENDBRANCH   2  28
TORSDOF 7
BEGIN_RES MET A 624
REMARK  4 active torsions:
REMARK  status: ('A' for Active; 'I' for Inactive)
REMARK    1  A    between atoms: CA   and  CB  
REMARK    2  A    between atoms: CB   and  CG  
REMARK    3  A    between atoms: CG   and  SD  
REMARK    4  A    between atoms: SD   and  CE  
ROOT
ATOM      1  CA  MET A 624      14.156  -1.311 -16.529  1.00 37.55     0.090 C 
ENDROOT
BRANCH   1   2
ATOM      2  CB  MET A 624      14.290  -0.416 -17.759  1.00 35.24    -0.030 C 
ATOM      3  HB2 MET A 624      14.716  -0.977 -18.623  1.00  0.00     0.037 H 
ATOM      4  HB1 MET A 624      13.292  -0.165 -18.187  1.00  0.00     0.037 H 
BRANCH   2   5
ATOM      5  CG  MET A 624      15.096   0.839 -17.465  1.00 41.56    -0.021 C 
ATOM      6  HG2 MET A 624      16.021   0.853 -18.088  1.00  0.00     0.049 H 
ATOM      7  HG1 MET A 624      15.544   0.775 -16.447  1.00  0.00     0.049 H 
BRANCH   5   8
ATOM      8  SD  MET A 624      14.207   2.392 -17.650  1.00 46.36    -0.173 SA
BRANCH   8   9
ATOM      9  CE  MET A 624      14.399   2.706 -19.402  1.00 43.21    -0.035 C 
ATOM     10  HE3 MET A 624      15.104   2.025 -19.933  1.00  0.00     0.041 H 
ATOM     11  HE1 MET A 624      14.687   3.784 -19.404  1.00  0.00     0.041 H 
ATOM     12  HE2 MET A 624      13.515   2.448 -20.032  1.00  0.00     0.041 H 
ENDBRANCH   8   9
ENDBRANCH   5   8
ENDBRANCH   2   5
ENDBRANCH   1   2
END_RES MET A 624
BEGIN_RES LEU A 625
REMARK  4 active torsions:
REMARK  status: ('A' for Active; 'I' for Inactive)
REMARK    5  A    between atoms: CA   and  CB  
REMARK    6  A    between atoms: CB   and  CG  
REMARK    7  A    between atoms: CG   and  CD1 
REMARK    8  A    between atoms: CG   and  CD2 
ROOT
ATOM     13  CA  LEU A 625      17.135  -3.624 -16.776  1.00 49.20     0.089 C 
ENDROOT
BRANCH  13  14
ATOM     14  CB  LEU A 625      17.051  -5.150 -16.753  1.00 47.95    -0.035 C 
ATOM     15  HB2 LEU A 625      16.405  -5.497 -17.593  1.00  0.00     0.037 H 
ATOM     16  HB1 LEU A 625      18.035  -5.578 -17.056  1.00  0.00     0.037 H 
BRANCH  14  17
ATOM     17  CG  LEU A 625      16.591  -5.809 -15.457  1.00 41.83    -0.059 C 
ATOM     18  HG  LEU A 625      16.030  -5.058 -14.851  1.00  0.00     0.038 H 
BRANCH  17  19
ATOM     19  CD1 LEU A 625      15.666  -6.959 -15.787  1.00 45.22    -0.073 C 
ATOM     20 3HD1 LEU A 625      15.963  -7.486 -16.724  1.00  0.00     0.028 H 
ATOM     21 2HD1 LEU A 625      15.784  -7.814 -15.081  1.00  0.00     0.028 H 
ATOM     22 1HD1 LEU A 625      14.616  -6.583 -15.826  1.00  0.00     0.028 H 
ENDBRANCH  17  19
BRANCH  17  23
ATOM     23  CD2 LEU A 625      17.789  -6.285 -14.657  1.00 48.58    -0.073 C 
ATOM     24 1HD2 LEU A 625      17.945  -7.379 -14.813  1.00  0.00     0.028 H 
ATOM     25 3HD2 LEU A 625      18.706  -5.696 -14.890  1.00  0.00     0.028 H 
ATOM     26 2HD2 LEU A 625      17.698  -6.027 -13.576  1.00  0.00     0.028 H 
ENDBRANCH  17  23
ENDBRANCH  14  17
ENDBRANCH  13  14
END_RES LEU A 625
BEGIN_RES CYS A 673
REMARK  1 active torsions:
REMARK  status: ('A' for Active; 'I' for Inactive)
REMARK    9  A    between atoms: CA   and  CB  
ROOT
ATOM     27  CA  CYS A 673       6.053  10.339  -6.366  1.00 37.53     0.098 C 
ENDROOT
BRANCH  27  28
ATOM     28  CB  CYS A 673       6.430   9.481  -5.160  1.00 34.59     0.013 C 
ATOM     29  SG  CYS A 673       5.024   8.521  -4.528  1.00 37.22    -0.095 SA
ATOM     30  HB1 CYS A 673       7.297   8.819  -5.393  1.00  0.00     0.053 H 
ATOM     31  HB2 CYS A 673       6.889  10.099  -4.355  1.00  0.00     0.053 H 
ENDBRANCH  27  28
END_RES CYS A 673
ENDMDL
MODEL 2
REMARK VINA RESULT:   -10.922      2.223      3.187
REMARK INTER + INTRA:         -15.446
REMARK INTER:                 -15.430
REMARK INTRA:                  -0.016
REMARK UNBOUND:                -0.054
REMARK SMILES Cc1cn(-c2cc(NC(=O)c3ccc(C)c(Nc4nccc(-c5cccnc5)n4)c3)cc(C(F)(F)F)c2)cn1
REMARK SMILES IDX 11 1 16 2 14 3 30 4 12 5 13 6 15 7 9 8 8 9 10 10 7 12 32 13
REMARK SMILES IDX 37 14 31 15 5 16 6 17 33 18 34 19 35 20 36 21 4 22 3 23
REMARK SMILES IDX 38 24 2 25 39 26 1 27 17 28 18 30 29 31 19 32 22 33 20 34
REMARK SMILES IDX 21 35 23 36 24 37 28 38 25 39 27 40 26 41
REMARK H PARENT 8 11 17 29
ROOT
ATOM      1  C   UNL     1      15.934   2.183  -6.996  1.00  0.00     0.042 A 
ATOM      2  C   UNL     1      17.015   0.101  -7.690  1.00  0.00     0.045 A 
ATOM      3  C   UNL     1      18.271   0.735  -7.580  1.00  0.00    -0.027 A 
ATOM      4  C   UNL     1      15.862   0.840  -7.389  1.00  0.00     0.040 A 
ATOM      5  C   UNL     1      17.183   2.794  -6.876  1.00  0.00     0.014 A 
ATOM      6  C   UNL     1      18.343   2.076  -7.167  1.00  0.00     0.006 A 
ATOM      7  C   UNL     1      19.551   0.010  -7.904  1.00  0.00     0.046 C 
ENDROOT
BRANCH   1   8
ATOM      8  C   UNL     1      14.717   2.975  -6.647  1.00  0.00     0.255 C 
ATOM      9  N   UNL     1      14.238   3.803  -7.647  1.00  0.00    -0.322 N 
ATOM     10  O   UNL     1      14.243   2.844  -5.525  1.00  0.00    -0.269 OA
ATOM     11  H   UNL     1      14.797   3.891  -8.485  1.00  0.00     0.170 HD
BRANCH   9  12
ATOM     12  C   UNL     1      13.053   4.567  -7.632  1.00  0.00     0.044 A 
ATOM     13  C   UNL     1      10.643   4.850  -7.775  1.00  0.00     0.060 A 
ATOM     14  C   UNL     1      10.798   6.239  -7.615  1.00  0.00     0.039 A 
ATOM     15  C   UNL     1      11.780   4.028  -7.795  1.00  0.00     0.039 A 
ATOM     16  C   UNL     1      12.074   6.800  -7.469  1.00  0.00     0.049 A 
ATOM     17  C   UNL     1      13.192   5.952  -7.463  1.00  0.00     0.052 A 
BRANCH  13  18
ATOM     18  C   UNL     1       9.280   4.236  -7.967  1.00  0.00     0.416 C 
ATOM     19  F   UNL     1       8.803   3.647  -6.832  1.00  0.00    -0.166 F 
ATOM     20  F   UNL     1       8.339   5.151  -8.328  1.00  0.00    -0.166 F 
ATOM     21  F   UNL     1       9.254   3.267  -8.921  1.00  0.00    -0.166 F 
ENDBRANCH  13  18
BRANCH  16  22
ATOM     22  N   UNL     1      12.241   8.209  -7.344  1.00  0.00    -0.306 N 
ATOM     23  C   UNL     1      11.328   9.192  -7.667  1.00  0.00     0.116 A 
ATOM     24  C   UNL     1      13.338   8.884  -6.855  1.00  0.00     0.204 A 
ATOM     25  C   UNL     1      11.920  10.396  -7.358  1.00  0.00     0.056 A 
ATOM     26  N   UNL     1      13.175  10.189  -6.859  1.00  0.00    -0.242 NA
ATOM     27  C   UNL     1      11.379  11.765  -7.498  1.00  0.00     0.068 C 
ENDBRANCH  16  22
ENDBRANCH   9  12
ENDBRANCH   1   8
BRANCH   2  28
ATOM     28  N   UNL     1      16.920  -1.221  -8.146  1.00  0.00    -0.324 N 
ATOM     29  H   UNL     1      17.215  -1.957  -7.523  1.00  0.00     0.170 HD
BRANCH  28  30
ATOM     30  C   UNL     1      16.734  -1.748  -9.422  1.00  0.00     0.227 A 
ATOM     31  N   UNL     1      16.705  -3.073  -9.633  1.00  0.00    -0.213 NA
ATOM     32  N   UNL     1      16.514  -0.845 -10.387  1.00  0.00    -0.221 NA
ATOM     33  C   UNL     1      16.420  -3.523 -10.878  1.00  0.00     0.077 A 
ATOM     34  C   UNL     1      16.252  -1.314 -11.618  1.00  0.00     0.117 A 
ATOM     35  C   UNL     1      16.187  -2.651 -11.920  1.00  0.00     0.049 A 
BRANCH  33  36
ATOM     36  C   UNL     1      16.358  -4.990 -11.013  1.00  0.00     0.019 A 
ATOM     37  C   UNL     1      15.238  -5.682 -11.499  1.00  0.00     0.013 A 
ATOM     38  C   UNL     1      17.447  -5.790 -10.653  1.00  0.00     0.121 A 
ATOM     39  C   UNL     1      15.247  -7.076 -11.592  1.00  0.00     0.021 A 
ATOM     40  N   UNL     1      17.498  -7.142 -10.755  1.00  0.00    -0.264 NA
ATOM     41  C   UNL     1      16.390  -7.756 -11.212  1.00  0.00     0.111 A 
ENDBRANCH  33  36
ENDBRANCH  28  30
ENDBRANCH   2  28
TORSDOF 7
BEGIN_RES MET A 624
REMARK  4 active torsions:
REMARK  status: ('A' for Active; 'I' for Inactive)
REMARK    1  A    between atoms: CA   and  CB  
REMARK    2  A    between atoms: CB   and  CG  
REMARK    3  A    between atoms: CG   and  SD  
REMARK    4  A    between atoms: SD   and  CE  
ROOT
ATOM      1  CA  MET A 624      14.156  -1.311 -16.529  1.00 37.55     0.090 C 
ENDROOT
BRANCH   1   2
ATOM      2  CB  MET A 624      14.290  -0.416 -17.759  1.00 35.24    -0.030 C 
ATOM      3  HB2 MET A 624      14.965  -0.873 -18.520  1.00  0.00     0.037 H 
ATOM      4  HB1 MET A 624      13.345  -0.397 -18.350  1.00  0.00     0.037 H 
BRANCH   2   5
ATOM      5  CG  MET A 624      14.741   0.989 -17.395  1.00 41.56    -0.021 C 
ATOM      6  HG2 MET A 624      15.781   1.163 -17.759  1.00  0.00     0.049 H 
ATOM      7  HG1 MET A 624      14.902   1.065 -16.295  1.00  0.00     0.049 H 
BRANCH   5   8
ATOM      8  SD  MET A 624      13.663   2.318 -17.951  1.00 46.36    -0.173 SA
BRANCH   8   9
ATOM      9  CE  MET A 624      14.498   2.851 -19.443  1.00 43.21    -0.035 C 
ATOM     10  HE3 MET A 624      15.519   2.429 -19.594  1.00  0.00     0.041 H 
ATOM     11  HE1 MET A 624      14.453   3.961 -19.337  1.00  0.00     0.041 H 
ATOM     12  HE2 MET A 624      14.079   2.446 -20.394  1.00  0.00     0.041 H 
ENDBRANCH   8   9
ENDBRANCH   5   8
ENDBRANCH   2   5
ENDBRANCH   1   2
END_RES MET A 624
BEGIN_RES LEU A 625
REMARK  4 active torsions:
REMARK  status: ('A' for Active; 'I' for Inactive)
REMARK    5  A    between atoms: CA   and  CB  
REMARK    6  A    between atoms: CB   and  CG  
REMARK    7  A    between atoms: CG   and  CD1 
REMARK    8  A    between atoms: CG   and  CD2 
ROOT
ATOM     13  CA  LEU A 625      17.135  -3.624 -16.776  1.00 49.20     0.089 C 
ENDROOT
BRANCH  13  14
ATOM     14  CB  LEU A 625      17.051  -5.150 -16.753  1.00 47.95    -0.035 C 
ATOM     15  HB2 LEU A 625      16.524  -5.505 -17.669  1.00  0.00     0.037 H 
ATOM     16  HB1 LEU A 625      18.067  -5.578 -16.919  1.00  0.00     0.037 H 
BRANCH  14  17
ATOM     17  CG  LEU A 625      16.423  -5.800 -15.524  1.00 41.83    -0.059 C 
ATOM     18  HG  LEU A 625      15.707  -5.080 -15.062  1.00  0.00     0.038 H 
BRANCH  17  19
ATOM     19  CD1 LEU A 625      15.665  -7.037 -15.952  1.00 45.22    -0.073 C 
ATOM     20 3HD1 LEU A 625      14.604  -7.025 -15.605  1.00  0.00     0.028 H 
ATOM     21 2HD1 LEU A 625      15.470  -7.056 -17.050  1.00  0.00     0.028 H 
ATOM     22 1HD1 LEU A 625      16.215  -7.941 -15.603  1.00  0.00     0.028 H 
ENDBRANCH  17  19
BRANCH  17  23
ATOM     23  CD2 LEU A 625      17.496  -6.144 -14.508  1.00 48.58    -0.073 C 
ATOM     24 1HD2 LEU A 625      17.269  -7.123 -14.024  1.00  0.00     0.028 H 
ATOM     25 3HD2 LEU A 625      18.516  -6.128 -14.957  1.00  0.00     0.028 H 
ATOM     26 2HD2 LEU A 625      17.635  -5.331 -13.758  1.00  0.00     0.028 H 
ENDBRANCH  17  23
ENDBRANCH  14  17
ENDBRANCH  13  14
END_RES LEU A 625
BEGIN_RES CYS A 673
REMARK  1 active torsions:
REMARK  status: ('A' for Active; 'I' for Inactive)
REMARK    9  A    between atoms: CA   and  CB  
ROOT
ATOM     27  CA  CYS A 673       6.053  10.339  -6.366  1.00 37.53     0.098 C 
ENDROOT
BRANCH  27  28
ATOM     28  CB  CYS A 673       6.430   9.481  -5.160  1.00 34.59     0.013 C 
ATOM     29  SG  CYS A 673       5.025   8.518  -4.530  1.00 37.22    -0.095 SA
ATOM     30  HB1 CYS A 673       7.298   8.821  -5.392  1.00  0.00     0.053 H 
ATOM     31  HB2 CYS A 673       6.887  10.100  -4.354  1.00  0.00     0.053 H 
ENDBRANCH  27  28
END_RES CYS A 673
ENDMDL
MODEL 3
REMARK VINA RESULT:   -10.838      1.232      1.692
REMARK INTER + INTRA:         -15.327
REMARK INTER:                 -15.267
REMARK INTRA:                  -0.060
REMARK UNBOUND:                -0.054
REMARK SMILES Cc1cn(-c2cc(NC(=O)c3ccc(C)c(Nc4nccc(-c5cccnc5)n4)c3)cc(C(F)(F)F)c2)cn1
REMARK SMILES IDX 11 1 16 2 14 3 30 4 12 5 13 6 15 7 9 8 8 9 10 10 7 12 32 13
REMARK SMILES IDX 37 14 31 15 5 16 6 17 33 18 34 19 35 20 36 21 4 22 3 23
REMARK SMILES IDX 38 24 2 25 39 26 1 27 17 28 18 30 29 31 19 32 22 33 20 34
REMARK SMILES IDX 21 35 23 36 24 37 28 38 25 39 27 40 26 41
REMARK H PARENT 8 11 17 29
ROOT
ATOM      1  C   UNL     1      15.637   1.595  -6.805  1.00  0.00     0.042 A 
ATOM      2  C   UNL     1      17.231  -0.076  -7.612  1.00  0.00     0.045 A 
ATOM      3  C   UNL     1      18.290   0.794  -7.274  1.00  0.00    -0.027 A 
ATOM      4  C   UNL     1      15.915   0.342  -7.365  1.00  0.00     0.040 A 
ATOM      5  C   UNL     1      16.694   2.440  -6.461  1.00  0.00     0.014 A 
ATOM      6  C   UNL     1      18.010   2.043  -6.695  1.00  0.00     0.006 A 
ATOM      7  C   UNL     1      19.727   0.422  -7.527  1.00  0.00     0.046 C 
ENDROOT
BRANCH   1   8
ATOM      8  C   UNL     1      14.243   2.042  -6.512  1.00  0.00     0.255 C 
ATOM      9  N   UNL     1      13.392   2.096  -7.602  1.00  0.00    -0.322 N 
ATOM     10  O   UNL     1      13.958   2.330  -5.355  1.00  0.00    -0.269 OA
ATOM     11  H   UNL     1      13.797   1.936  -8.515  1.00  0.00     0.170 HD
BRANCH   9  12
ATOM     12  C   UNL     1      12.009   2.369  -7.597  1.00  0.00     0.044 A 
ATOM     13  C   UNL     1       9.664   1.732  -7.536  1.00  0.00     0.060 A 
ATOM     14  C   UNL     1       9.295   3.085  -7.636  1.00  0.00     0.039 A 
ATOM     15  C   UNL     1      11.024   1.387  -7.531  1.00  0.00     0.039 A 
ATOM     16  C   UNL     1      10.274   4.084  -7.722  1.00  0.00     0.049 A 
ATOM     17  C   UNL     1      11.627   3.715  -7.685  1.00  0.00     0.052 A 
BRANCH  13  18
ATOM     18  C   UNL     1       8.623   0.644  -7.475  1.00  0.00     0.416 C 
ATOM     19  F   UNL     1       9.161  -0.589  -7.247  1.00  0.00    -0.166 F 
ATOM     20  F   UNL     1       7.717   0.839  -6.478  1.00  0.00    -0.166 F 
ATOM     21  F   UNL     1       7.903   0.521  -8.623  1.00  0.00    -0.166 F 
ENDBRANCH  13  18
BRANCH  16  22
ATOM     22  N   UNL     1       9.907   5.454  -7.861  1.00  0.00    -0.306 N 
ATOM     23  C   UNL     1      10.730   6.556  -7.752  1.00  0.00     0.116 A 
ATOM     24  C   UNL     1       8.661   5.964  -8.155  1.00  0.00     0.204 A 
ATOM     25  C   UNL     1       9.941   7.661  -7.984  1.00  0.00     0.056 A 
ATOM     26  N   UNL     1       8.653   7.276  -8.227  1.00  0.00    -0.242 NA
ATOM     27  C   UNL     1      10.318   9.091  -7.997  1.00  0.00     0.068 C 
ENDBRANCH  16  22
ENDBRANCH   9  12
ENDBRANCH   1   8
BRANCH   2  28
ATOM     28  N   UNL     1      17.488  -1.305  -8.234  1.00  0.00    -0.324 N 
ATOM     29  H   UNL     1      18.218  -1.884  -7.849  1.00  0.00     0.170 HD
BRANCH  28  30
ATOM     30  C   UNL     1      17.108  -1.811  -9.475  1.00  0.00     0.227 A 
ATOM     31  N   UNL     1      16.991  -3.132  -9.685  1.00  0.00    -0.213 NA
ATOM     32  N   UNL     1      16.799  -0.891 -10.398  1.00  0.00    -0.221 NA
ATOM     33  C   UNL     1      16.521  -3.557 -10.881  1.00  0.00     0.077 A 
ATOM     34  C   UNL     1      16.352  -1.336 -11.583  1.00  0.00     0.117 A 
ATOM     35  C   UNL     1      16.187  -2.666 -11.879  1.00  0.00     0.049 A 
BRANCH  33  36
ATOM     36  C   UNL     1      16.376  -5.019 -11.012  1.00  0.00     0.019 A 
ATOM     37  C   UNL     1      15.252  -5.644 -11.573  1.00  0.00     0.013 A 
ATOM     38  C   UNL     1      17.384  -5.881 -10.571  1.00  0.00     0.121 A 
ATOM     39  C   UNL     1      15.179  -7.037 -11.658  1.00  0.00     0.021 A 
ATOM     40  N   UNL     1      17.357  -7.235 -10.661  1.00  0.00    -0.264 NA
ATOM     41  C   UNL     1      16.247  -7.783 -11.192  1.00  0.00     0.111 A 
ENDBRANCH  33  36
ENDBRANCH  28  30
ENDBRANCH   2  28
TORSDOF 7
BEGIN_RES MET A 624
REMARK  4 active torsions:
REMARK  status: ('A' for Active; 'I' for Inactive)
REMARK    1  A    between atoms: CA   and  CB  
REMARK    2  A    between atoms: CB   and  CG  
REMARK    3  A    between atoms: CG   and  SD  
REMARK    4  A    between atoms: SD   and  CE  
ROOT
ATOM      1  CA  MET A 624      14.156  -1.311 -16.529  1.00 37.55     0.090 C 
ENDROOT
BRANCH   1   2
ATOM      2  CB  MET A 624      14.290  -0.416 -17.759  1.00 35.24    -0.030 C 
ATOM      3  HB2 MET A 624      15.007  -0.847 -18.497  1.00  0.00     0.037 H 
ATOM      4  HB1 MET A 624      13.364  -0.440 -18.379  1.00  0.00     0.037 H 
BRANCH   2   5
ATOM      5  CG  MET A 624      14.670   1.009 -17.388  1.00 41.56    -0.021 C 
ATOM      6  HG2 MET A 624      15.716   1.221 -17.711  1.00  0.00     0.049 H 
ATOM      7  HG1 MET A 624      14.782   1.098 -16.283  1.00  0.00     0.049 H 
BRANCH   5   8
ATOM      8  SD  MET A 624      13.565   2.289 -18.001  1.00 46.36    -0.173 SA
BRANCH   8   9
ATOM      9  CE  MET A 624      14.607   3.114 -19.200  1.00 43.21    -0.035 C 
ATOM     10  HE3 MET A 624      15.684   2.824 -19.175  1.00  0.00     0.041 H 
ATOM     11  HE1 MET A 624      14.398   4.187 -18.975  1.00  0.00     0.041 H 
ATOM     12  HE2 MET A 624      14.446   2.810 -20.261  1.00  0.00     0.041 H 
ENDBRANCH   8   9
ENDBRANCH   5   8
ENDBRANCH   2   5
ENDBRANCH   1   2
END_RES MET A 624
BEGIN_RES LEU A 625
REMARK  4 active torsions:
REMARK  status: ('A' for Active; 'I' for Inactive)
REMARK    5  A    between atoms: CA   and  CB  
REMARK    6  A    between atoms: CB   and  CG  
REMARK    7  A    between atoms: CG   and  CD1 
REMARK    8  A    between atoms: CG   and  CD2 
ROOT
ATOM     13  CA  LEU A 625      17.135  -3.624 -16.776  1.00 49.20     0.089 C 
ENDROOT
BRANCH  13  14
ATOM     14  CB  LEU A 625      17.051  -5.150 -16.753  1.00 47.95    -0.035 C 
ATOM     15  HB2 LEU A 625      16.515  -5.504 -17.664  1.00  0.00     0.037 H 
ATOM     16  HB1 LEU A 625      18.065  -5.578 -16.929  1.00  0.00     0.037 H 
BRANCH  14  17
ATOM     17  CG  LEU A 625      16.435  -5.801 -15.519  1.00 41.83    -0.059 C 
ATOM     18  HG  LEU A 625      15.734  -5.076 -15.042  1.00  0.00     0.038 H 
BRANCH  17  19
ATOM     19  CD1 LEU A 625      15.657  -7.027 -15.942  1.00 45.22    -0.073 C 
ATOM     20 3HD1 LEU A 625      15.556  -7.771 -15.117  1.00  0.00     0.028 H 
ATOM     21 2HD1 LEU A 625      14.573  -6.811 -16.092  1.00  0.00     0.028 H 
ATOM     22 1HD1 LEU A 625      16.132  -7.464 -16.852  1.00  0.00     0.028 H 
ENDBRANCH  17  19
BRANCH  17  23
ATOM     23  CD2 LEU A 625      17.519  -6.161 -14.520  1.00 48.58    -0.073 C 
ATOM     24 1HD2 LEU A 625      17.693  -5.313 -13.817  1.00  0.00     0.028 H 
ATOM     25 3HD2 LEU A 625      17.289  -7.109 -13.980  1.00  0.00     0.028 H 
ATOM     26 2HD2 LEU A 625      18.459  -6.484 -15.025  1.00  0.00     0.028 H 
ENDBRANCH  17  23
ENDBRANCH  14  17
ENDBRANCH  13  14
END_RES LEU A 625
BEGIN_RES CYS A 673
REMARK  1 active torsions:
REMARK  status: ('A' for Active; 'I' for Inactive)
REMARK    9  A    between atoms: CA   and  CB  
ROOT
ATOM     27  CA  CYS A 673       6.053  10.339  -6.366  1.00 37.53     0.098 C 
ENDROOT
BRANCH  27  28
ATOM     28  CB  CYS A 673       6.430   9.481  -5.160  1.00 34.59     0.013 C 
ATOM     29  SG  CYS A 673       5.021   8.532  -4.519  1.00 37.22    -0.095 SA
ATOM     30  HB1 CYS A 673       7.291   8.813  -5.395  1.00  0.00     0.053 H 
ATOM     31  HB2 CYS A 673       6.897  10.098  -4.358  1.00  0.00     0.053 H 
ENDBRANCH  27  28
END_RES CYS A 673
ENDMDL
MODEL 4
REMARK VINA RESULT:   -10.634      3.157      5.200
REMARK INTER + INTRA:         -15.040
REMARK INTER:                 -14.803
REMARK INTRA:                  -0.238
REMARK UNBOUND:                -0.054
REMARK SMILES Cc1cn(-c2cc(NC(=O)c3ccc(C)c(Nc4nccc(-c5cccnc5)n4)c3)cc(C(F)(F)F)c2)cn1
REMARK SMILES IDX 11 1 16 2 14 3 30 4 12 5 13 6 15 7 9 8 8 9 10 10 7 12 32 13
REMARK SMILES IDX 37 14 31 15 5 16 6 17 33 18 34 19 35 20 36 21 4 22 3 23
REMARK SMILES IDX 38 24 2 25 39 26 1 27 17 28 18 30 29 31 19 32 22 33 20 34
REMARK SMILES IDX 21 35 23 36 24 37 28 38 25 39 27 40 26 41
REMARK H PARENT 8 11 17 29
ROOT
ATOM      1  C   UNL     1      15.687   4.549  -6.197  1.00  0.00     0.042 A 
ATOM      2  C   UNL     1      17.684   3.257  -6.769  1.00  0.00     0.045 A 
ATOM      3  C   UNL     1      18.477   4.221  -6.110  1.00  0.00    -0.027 A 
ATOM      4  C   UNL     1      16.293   3.438  -6.796  1.00  0.00     0.040 A 
ATOM      5  C   UNL     1      16.481   5.487  -5.535  1.00  0.00     0.014 A 
ATOM      6  C   UNL     1      17.865   5.324  -5.492  1.00  0.00     0.006 A 
ATOM      7  C   UNL     1      19.977   4.104  -6.055  1.00  0.00     0.046 C 
ENDROOT
BRANCH   1   8
ATOM      8  C   UNL     1      14.206   4.740  -6.195  1.00  0.00     0.255 C 
ATOM      9  N   UNL     1      13.588   4.628  -7.429  1.00  0.00    -0.322 N 
ATOM     10  O   UNL     1      13.655   4.984  -5.128  1.00  0.00    -0.269 OA
ATOM     11  H   UNL     1      14.185   4.534  -8.240  1.00  0.00     0.170 HD
BRANCH   9  12
ATOM     12  C   UNL     1      12.205   4.647  -7.699  1.00  0.00     0.044 A 
ATOM     13  C   UNL     1      10.077   5.756  -8.086  1.00  0.00     0.060 A 
ATOM     14  C   UNL     1       9.447   4.505  -8.203  1.00  0.00     0.039 A 
ATOM     15  C   UNL     1      11.454   5.813  -7.821  1.00  0.00     0.039 A 
ATOM     16  C   UNL     1      10.185   3.322  -8.065  1.00  0.00     0.049 A 
ATOM     17  C   UNL     1      11.566   3.406  -7.829  1.00  0.00     0.052 A 
BRANCH  13  18
ATOM     18  C   UNL     1       9.291   7.037  -8.200  1.00  0.00     0.416 C 
ATOM     19  F   UNL     1       9.827   8.053  -7.464  1.00  0.00    -0.166 F 
ATOM     20  F   UNL     1       9.229   7.503  -9.478  1.00  0.00    -0.166 F 
ATOM     21  F   UNL     1       8.003   6.920  -7.777  1.00  0.00    -0.166 F 
ENDBRANCH  13  18
BRANCH  16  22
ATOM     22  N   UNL     1       9.547   2.050  -8.144  1.00  0.00    -0.306 N 
ATOM     23  C   UNL     1       8.603   1.533  -7.282  1.00  0.00     0.116 A 
ATOM     24  C   UNL     1       9.722   1.083  -9.109  1.00  0.00     0.204 A 
ATOM     25  C   UNL     1       8.263   0.290  -7.770  1.00  0.00     0.056 A 
ATOM     26  N   UNL     1       8.973   0.021  -8.906  1.00  0.00    -0.242 NA
ATOM     27  C   UNL     1       7.292  -0.688  -7.236  1.00  0.00     0.068 C 
ENDBRANCH  16  22
ENDBRANCH   9  12
ENDBRANCH   1   8
BRANCH   2  28
ATOM     28  N   UNL     1      18.280   2.176  -7.432  1.00  0.00    -0.324 N 
ATOM     29  H   UNL     1      18.940   2.379  -8.166  1.00  0.00     0.170 HD
BRANCH  28  30
ATOM     30  C   UNL     1      17.957   0.821  -7.468  1.00  0.00     0.227 A 
ATOM     31  N   UNL     1      17.589   0.221  -8.610  1.00  0.00    -0.213 NA
ATOM     32  N   UNL     1      18.116   0.164  -6.311  1.00  0.00    -0.221 NA
ATOM     33  C   UNL     1      17.386  -1.118  -8.601  1.00  0.00     0.077 A 
ATOM     34  C   UNL     1      17.891  -1.160  -6.321  1.00  0.00     0.117 A 
ATOM     35  C   UNL     1      17.528  -1.857  -7.446  1.00  0.00     0.049 A 
BRANCH  33  36
ATOM     36  C   UNL     1      17.033  -1.706  -9.907  1.00  0.00     0.019 A 
ATOM     37  C   UNL     1      17.316  -3.033 -10.267  1.00  0.00     0.013 A 
ATOM     38  C   UNL     1      16.378  -0.947 -10.881  1.00  0.00     0.121 A 
ATOM     39  C   UNL     1      16.960  -3.521 -11.526  1.00  0.00     0.021 A 
ATOM     40  N   UNL     1      15.995  -1.397 -12.103  1.00  0.00    -0.264 NA
ATOM     41  C   UNL     1      16.306  -2.673 -12.402  1.00  0.00     0.111 A 
ENDBRANCH  33  36
ENDBRANCH  28  30
ENDBRANCH   2  28
TORSDOF 7
BEGIN_RES MET A 624
REMARK  4 active torsions:
REMARK  status: ('A' for Active; 'I' for Inactive)
REMARK    1  A    between atoms: CA   and  CB  
REMARK    2  A    between atoms: CB   and  CG  
REMARK    3  A    between atoms: CG   and  SD  
REMARK    4  A    between atoms: SD   and  CE  
ROOT
ATOM      1  CA  MET A 624      14.156  -1.311 -16.529  1.00 37.55     0.090 C 
ENDROOT
BRANCH   1   2
ATOM      2  CB  MET A 624      14.290  -0.416 -17.759  1.00 35.24    -0.030 C 
ATOM      3  HB2 MET A 624      15.004  -0.849 -18.499  1.00  0.00     0.037 H 
ATOM      4  HB1 MET A 624      13.362  -0.436 -18.376  1.00  0.00     0.037 H 
BRANCH   2   5
ATOM      5  CG  MET A 624      14.676   1.007 -17.389  1.00 41.56    -0.021 C 
ATOM      6  HG2 MET A 624      15.728   1.210 -17.698  1.00  0.00     0.049 H 
ATOM      7  HG1 MET A 624      14.774   1.100 -16.283  1.00  0.00     0.049 H 
BRANCH   5   8
ATOM      8  SD  MET A 624      13.590   2.294 -18.021  1.00 46.36    -0.173 SA
BRANCH   8   9
ATOM      9  CE  MET A 624      14.663   3.122 -19.191  1.00 43.21    -0.035 C 
ATOM     10  HE3 MET A 624      14.225   3.289 -20.203  1.00  0.00     0.041 H 
ATOM     11  HE1 MET A 624      15.566   2.467 -19.166  1.00  0.00     0.041 H 
ATOM     12  HE2 MET A 624      14.852   4.201 -18.983  1.00  0.00     0.041 H 
ENDBRANCH   8   9
ENDBRANCH   5   8
ENDBRANCH   2   5
ENDBRANCH   1   2
END_RES MET A 624
BEGIN_RES LEU A 625
REMARK  4 active torsions:
REMARK  status: ('A' for Active; 'I' for Inactive)
REMARK    5  A    between atoms: CA   and  CB  
REMARK    6  A    between atoms: CB   and  CG  
REMARK    7  A    between atoms: CG   and  CD1 
REMARK    8  A    between atoms: CG   and  CD2 
ROOT
ATOM     13  CA  LEU A 625      17.135  -3.624 -16.776  1.00 49.20     0.089 C 
ENDROOT
BRANCH  13  14
ATOM     14  CB  LEU A 625      17.051  -5.150 -16.753  1.00 47.95    -0.035 C 
ATOM     15  HB2 LEU A 625      16.557  -5.507 -17.686  1.00  0.00     0.037 H 
ATOM     16  HB1 LEU A 625      18.072  -5.578 -16.882  1.00  0.00     0.037 H 
BRANCH  14  17
ATOM     17  CG  LEU A 625      16.380  -5.798 -15.546  1.00 41.83    -0.059 C 
ATOM     18  HG  LEU A 625      15.642  -5.081 -15.116  1.00  0.00     0.038 H 
BRANCH  17  19
ATOM     19  CD1 LEU A 625      15.646  -7.042 -15.997  1.00 45.22    -0.073 C 
ATOM     20 3HD1 LEU A 625      15.945  -7.362 -17.023  1.00  0.00     0.028 H 
ATOM     21 2HD1 LEU A 625      15.978  -7.953 -15.445  1.00  0.00     0.028 H 
ATOM     22 1HD1 LEU A 625      14.548  -6.869 -15.909  1.00  0.00     0.028 H 
ENDBRANCH  17  19
BRANCH  17  23
ATOM     23  CD2 LEU A 625      17.415  -6.130 -14.487  1.00 48.58    -0.073 C 
ATOM     24 1HD2 LEU A 625      18.376  -6.430 -14.967  1.00  0.00     0.028 H 
ATOM     25 3HD2 LEU A 625      17.554  -5.292 -13.764  1.00  0.00     0.028 H 
ATOM     26 2HD2 LEU A 625      17.047  -6.903 -13.773  1.00  0.00     0.028 H 
ENDBRANCH  17  23
ENDBRANCH  14  17
ENDBRANCH  13  14
END_RES LEU A 625
BEGIN_RES CYS A 673
REMARK  1 active torsions:
REMARK  status: ('A' for Active; 'I' for Inactive)
REMARK    9  A    between atoms: CA   and  CB  
ROOT
ATOM     27  CA  CYS A 673       6.053  10.339  -6.366  1.00 37.53     0.098 C 
ENDROOT
BRANCH  27  28
ATOM     28  CB  CYS A 673       6.430   9.481  -5.160  1.00 34.59     0.013 C 
ATOM     29  SG  CYS A 673       5.022   8.527  -4.523  1.00 37.22    -0.095 SA
ATOM     30  HB1 CYS A 673       7.294   8.816  -5.394  1.00  0.00     0.053 H 
ATOM     31  HB2 CYS A 673       6.894  10.098  -4.357  1.00  0.00     0.053 H 
ENDBRANCH  27  28
END_RES CYS A 673
ENDMDL
MODEL 5
REMARK VINA RESULT:   -10.628      3.291     10.205
REMARK INTER + INTRA:         -15.032
REMARK INTER:                 -15.629
REMARK INTRA:                   0.597
REMARK UNBOUND:                -0.054
REMARK SMILES Cc1cn(-c2cc(NC(=O)c3ccc(C)c(Nc4nccc(-c5cccnc5)n4)c3)cc(C(F)(F)F)c2)cn1
REMARK SMILES IDX 11 1 16 2 14 3 30 4 12 5 13 6 15 7 9 8 8 9 10 10 7 12 32 13
REMARK SMILES IDX 37 14 31 15 5 16 6 17 33 18 34 19 35 20 36 21 4 22 3 23
REMARK SMILES IDX 38 24 2 25 39 26 1 27 17 28 18 30 29 31 19 32 22 33 20 34
REMARK SMILES IDX 21 35 23 36 24 37 28 38 25 39 27 40 26 41
REMARK H PARENT 8 11 17 29
ROOT
ATOM      1  C   UNL     1      16.871  -0.358  -9.175  1.00  0.00     0.042 A 
ATOM      2  C   UNL     1      15.197   0.852  -7.865  1.00  0.00     0.045 A 
ATOM      3  C   UNL     1      15.984   2.019  -7.967  1.00  0.00    -0.027 A 
ATOM      4  C   UNL     1      15.656  -0.322  -8.480  1.00  0.00     0.040 A 
ATOM      5  C   UNL     1      17.632   0.807  -9.282  1.00  0.00     0.014 A 
ATOM      6  C   UNL     1      17.192   1.986  -8.682  1.00  0.00     0.006 A 
ATOM      7  C   UNL     1      15.564   3.311  -7.318  1.00  0.00     0.046 C 
ENDROOT
BRANCH   1   8
ATOM      8  C   UNL     1      17.360  -1.593  -9.857  1.00  0.00     0.255 C 
ATOM      9  N   UNL     1      16.600  -2.731  -9.647  1.00  0.00    -0.322 N 
ATOM     10  O   UNL     1      18.378  -1.517 -10.535  1.00  0.00    -0.269 OA
ATOM     11  H   UNL     1      15.847  -2.669  -8.974  1.00  0.00     0.170 HD
BRANCH   9  12
ATOM     12  C   UNL     1      16.762  -3.993 -10.253  1.00  0.00     0.044 A 
ATOM     13  C   UNL     1      16.664  -5.537 -12.128  1.00  0.00     0.060 A 
ATOM     14  C   UNL     1      17.103  -6.579 -11.292  1.00  0.00     0.039 A 
ATOM     15  C   UNL     1      16.485  -4.253 -11.592  1.00  0.00     0.039 A 
ATOM     16  C   UNL     1      17.368  -6.339  -9.937  1.00  0.00     0.049 A 
ATOM     17  C   UNL     1      17.209  -5.039  -9.433  1.00  0.00     0.052 A 
BRANCH  13  18
ATOM     18  C   UNL     1      16.343  -5.787 -13.579  1.00  0.00     0.416 C 
ATOM     19  F   UNL     1      17.459  -5.867 -14.360  1.00  0.00    -0.166 F 
ATOM     20  F   UNL     1      15.674  -6.956 -13.775  1.00  0.00    -0.166 F 
ATOM     21  F   UNL     1      15.575  -4.812 -14.138  1.00  0.00    -0.166 F 
ENDBRANCH  13  18
BRANCH  16  22
ATOM     22  N   UNL     1      17.778  -7.398  -9.076  1.00  0.00    -0.306 N 
ATOM     23  C   UNL     1      18.237  -7.292  -7.780  1.00  0.00     0.116 A 
ATOM     24  C   UNL     1      17.779  -8.749  -9.348  1.00  0.00     0.204 A 
ATOM     25  C   UNL     1      18.489  -8.574  -7.345  1.00  0.00     0.056 A 
ATOM     26  N   UNL     1      18.205  -9.471  -8.336  1.00  0.00    -0.242 NA
ATOM     27  C   UNL     1      18.988  -9.033  -6.031  1.00  0.00     0.068 C 
ENDBRANCH  16  22
ENDBRANCH   9  12
ENDBRANCH   1   8
BRANCH   2  28
ATOM     28  N   UNL     1      14.013   0.853  -7.116  1.00  0.00    -0.324 N 
ATOM     29  H   UNL     1      14.016   0.376  -6.228  1.00  0.00     0.170 HD
BRANCH  28  30
ATOM     30  C   UNL     1      12.700   1.170  -7.459  1.00  0.00     0.227 A 
ATOM     31  N   UNL     1      12.281   2.444  -7.515  1.00  0.00    -0.213 NA
ATOM     32  N   UNL     1      11.930   0.127  -7.797  1.00  0.00    -0.221 NA
ATOM     33  C   UNL     1      11.024   2.692  -7.953  1.00  0.00     0.077 A 
ATOM     34  C   UNL     1      10.681   0.396  -8.211  1.00  0.00     0.117 A 
ATOM     35  C   UNL     1      10.174   1.667  -8.314  1.00  0.00     0.049 A 
BRANCH  33  36
ATOM     36  C   UNL     1      10.659   4.119  -8.031  1.00  0.00     0.019 A 
ATOM     37  C   UNL     1      11.591   5.166  -7.967  1.00  0.00     0.013 A 
ATOM     38  C   UNL     1       9.325   4.511  -8.177  1.00  0.00     0.121 A 
ATOM     39  C   UNL     1      11.173   6.497  -8.039  1.00  0.00     0.021 A 
ATOM     40  N   UNL     1       8.888   5.791  -8.276  1.00  0.00    -0.264 NA
ATOM     41  C   UNL     1       9.823   6.758  -8.192  1.00  0.00     0.111 A 
ENDBRANCH  33  36
ENDBRANCH  28  30
ENDBRANCH   2  28
TORSDOF 7
BEGIN_RES MET A 624
REMARK  4 active torsions:
REMARK  status: ('A' for Active; 'I' for Inactive)
REMARK    1  A    between atoms: CA   and  CB  
REMARK    2  A    between atoms: CB   and  CG  
REMARK    3  A    between atoms: CG   and  SD  
REMARK    4  A    between atoms: SD   and  CE  
ROOT
ATOM      1  CA  MET A 624      14.156  -1.311 -16.529  1.00 37.55     0.090 C 
ENDROOT
BRANCH   1   2
ATOM      2  CB  MET A 624      14.290  -0.416 -17.759  1.00 35.24    -0.030 C 
ATOM      3  HB2 MET A 624      14.997  -0.853 -18.502  1.00  0.00     0.037 H 
ATOM      4  HB1 MET A 624      13.359  -0.430 -18.372  1.00  0.00     0.037 H 
BRANCH   2   5
ATOM      5  CG  MET A 624      14.687   1.004 -17.390  1.00 41.56    -0.021 C 
ATOM      6  HG2 MET A 624      15.737   1.202 -17.707  1.00  0.00     0.049 H 
ATOM      7  HG1 MET A 624      14.794   1.095 -16.284  1.00  0.00     0.049 H 
BRANCH   5   8
ATOM      8  SD  MET A 624      13.602   2.298 -18.011  1.00 46.36    -0.173 SA
BRANCH   8   9
ATOM      9  CE  MET A 624      14.690   3.160 -19.142  1.00 43.21    -0.035 C 
ATOM     10  HE3 MET A 624      14.941   2.606 -20.077  1.00  0.00     0.041 H 
ATOM     11  HE1 MET A 624      15.557   3.395 -18.481  1.00  0.00     0.041 H 
ATOM     12  HE2 MET A 624      14.238   4.037 -19.663  1.00  0.00     0.041 H 
ENDBRANCH   8   9
ENDBRANCH   5   8
ENDBRANCH   2   5
ENDBRANCH   1   2
END_RES MET A 624
BEGIN_RES LEU A 625
REMARK  4 active torsions:
REMARK  status: ('A' for Active; 'I' for Inactive)
REMARK    5  A    between atoms: CA   and  CB  
REMARK    6  A    between atoms: CB   and  CG  
REMARK    7  A    between atoms: CG   and  CD1 
REMARK    8  A    between atoms: CG   and  CD2 
ROOT
ATOM     13  CA  LEU A 625      17.135  -3.624 -16.776  1.00 49.20     0.089 C 
ENDROOT
BRANCH  13  14
ATOM     14  CB  LEU A 625      17.051  -5.150 -16.753  1.00 47.95    -0.035 C 
ATOM     15  HB2 LEU A 625      18.055  -5.579 -16.980  1.00  0.00     0.037 H 
ATOM     16  HB1 LEU A 625      16.910  -5.496 -15.703  1.00  0.00     0.037 H 
BRANCH  14  17
ATOM     17  CG  LEU A 625      16.006  -5.809 -17.647  1.00 41.83    -0.059 C 
ATOM     18  HG  LEU A 625      15.236  -5.050 -17.920  1.00  0.00     0.038 H 
BRANCH  17  19
ATOM     19  CD1 LEU A 625      16.676  -6.302 -18.910  1.00 45.22    -0.073 C 
ATOM     20 3HD1 LEU A 625      17.034  -5.465 -19.555  1.00  0.00     0.028 H 
ATOM     21 2HD1 LEU A 625      17.664  -6.779 -18.708  1.00  0.00     0.028 H 
ATOM     22 1HD1 LEU A 625      15.978  -6.985 -19.450  1.00  0.00     0.028 H 
ENDBRANCH  17  19
BRANCH  17  23
ATOM     23  CD2 LEU A 625      15.329  -6.949 -16.909  1.00 48.58    -0.073 C 
ATOM     24 1HD2 LEU A 625      16.009  -7.358 -16.125  1.00  0.00     0.028 H 
ATOM     25 3HD2 LEU A 625      14.343  -6.644 -16.487  1.00  0.00     0.028 H 
ATOM     26 2HD2 LEU A 625      14.971  -7.742 -17.605  1.00  0.00     0.028 H 
ENDBRANCH  17  23
ENDBRANCH  14  17
ENDBRANCH  13  14
END_RES LEU A 625
BEGIN_RES CYS A 673
REMARK  1 active torsions:
REMARK  status: ('A' for Active; 'I' for Inactive)
REMARK    9  A    between atoms: CA   and  CB  
ROOT
ATOM     27  CA  CYS A 673       6.053  10.339  -6.366  1.00 37.53     0.098 C 
ENDROOT
BRANCH  27  28
ATOM     28  CB  CYS A 673       6.430   9.481  -5.160  1.00 34.59     0.013 C 
ATOM     29  SG  CYS A 673       5.024   8.520  -4.529  1.00 37.22    -0.095 SA
ATOM     30  HB1 CYS A 673       7.297   8.820  -5.392  1.00  0.00     0.053 H 
ATOM     31  HB2 CYS A 673       6.889  10.099  -4.354  1.00  0.00     0.053 H 
ENDBRANCH  27  28
END_RES CYS A 673
ENDMDL
MODEL 6
REMARK VINA RESULT:   -10.539      2.326      3.706
REMARK INTER + INTRA:         -14.906
REMARK INTER:                 -15.081
REMARK INTRA:                   0.174
REMARK UNBOUND:                -0.054
REMARK SMILES Cc1cn(-c2cc(NC(=O)c3ccc(C)c(Nc4nccc(-c5cccnc5)n4)c3)cc(C(F)(F)F)c2)cn1
REMARK SMILES IDX 11 1 16 2 14 3 30 4 12 5 13 6 15 7 9 8 8 9 10 10 7 12 32 13
REMARK SMILES IDX 37 14 31 15 5 16 6 17 33 18 34 19 35 20 36 21 4 22 3 23
REMARK SMILES IDX 38 24 2 25 39 26 1 27 17 28 18 30 29 31 19 32 22 33 20 34
REMARK SMILES IDX 21 35 23 36 24 37 28 38 25 39 27 40 26 41
REMARK H PARENT 8 11 17 29
ROOT
ATOM      1  C   UNL     1      16.139   3.283  -6.850  1.00  0.00     0.042 A 
ATOM      2  C   UNL     1      18.302   2.138  -6.853  1.00  0.00     0.045 A 
ATOM      3  C   UNL     1      18.520   2.582  -5.531  1.00  0.00    -0.027 A 
ATOM      4  C   UNL     1      17.105   2.496  -7.491  1.00  0.00     0.040 A 
ATOM      5  C   UNL     1      16.361   3.702  -5.537  1.00  0.00     0.014 A 
ATOM      6  C   UNL     1      17.542   3.355  -4.883  1.00  0.00     0.006 A 
ATOM      7  C   UNL     1      19.788   2.253  -4.789  1.00  0.00     0.046 C 
ENDROOT
BRANCH   1   8
ATOM      8  C   UNL     1      14.849   3.649  -7.507  1.00  0.00     0.255 C 
ATOM      9  N   UNL     1      13.761   2.867  -7.161  1.00  0.00    -0.322 N 
ATOM     10  O   UNL     1      14.845   4.590  -8.292  1.00  0.00    -0.269 OA
ATOM     11  H   UNL     1      13.937   2.055  -6.584  1.00  0.00     0.170 HD
BRANCH   9  12
ATOM     12  C   UNL     1      12.416   3.057  -7.535  1.00  0.00     0.044 A 
ATOM     13  C   UNL     1      10.232   2.289  -8.278  1.00  0.00     0.060 A 
ATOM     14  C   UNL     1       9.770   3.616  -8.289  1.00  0.00     0.039 A 
ATOM     15  C   UNL     1      11.561   2.025  -7.912  1.00  0.00     0.039 A 
ATOM     16  C   UNL     1      10.622   4.669  -7.930  1.00  0.00     0.049 A 
ATOM     17  C   UNL     1      11.938   4.375  -7.540  1.00  0.00     0.052 A 
BRANCH  13  18
ATOM     18  C   UNL     1       9.337   1.149  -8.692  1.00  0.00     0.416 C 
ATOM     19  F   UNL     1       9.745  -0.052  -8.191  1.00  0.00    -0.166 F 
ATOM     20  F   UNL     1       8.054   1.308  -8.264  1.00  0.00    -0.166 F 
ATOM     21  F   UNL     1       9.269   0.979 -10.041  1.00  0.00    -0.166 F 
ENDBRANCH  13  18
BRANCH  16  22
ATOM     22  N   UNL     1      10.172   6.020  -7.975  1.00  0.00    -0.306 N 
ATOM     23  C   UNL     1      10.921   7.159  -7.767  1.00  0.00     0.116 A 
ATOM     24  C   UNL     1       8.901   6.472  -8.258  1.00  0.00     0.204 A 
ATOM     25  C   UNL     1      10.068   8.228  -7.933  1.00  0.00     0.056 A 
ATOM     26  N   UNL     1       8.811   7.783  -8.233  1.00  0.00    -0.242 NA
ATOM     27  C   UNL     1      10.354   9.675  -7.832  1.00  0.00     0.068 C 
ENDBRANCH  16  22
ENDBRANCH   9  12
ENDBRANCH   1   8
BRANCH   2  28
ATOM     28  N   UNL     1      19.285   1.408  -7.532  1.00  0.00    -0.324 N 
ATOM     29  H   UNL     1      20.041   1.920  -7.960  1.00  0.00     0.170 HD
BRANCH  28  30
ATOM     30  C   UNL     1      19.316   0.088  -7.978  1.00  0.00     0.227 A 
ATOM     31  N   UNL     1      18.481  -0.345  -8.935  1.00  0.00    -0.213 NA
ATOM     32  N   UNL     1      20.277  -0.674  -7.440  1.00  0.00    -0.221 NA
ATOM     33  C   UNL     1      18.628  -1.610  -9.396  1.00  0.00     0.077 A 
ATOM     34  C   UNL     1      20.392  -1.931  -7.900  1.00  0.00     0.117 A 
ATOM     35  C   UNL     1      19.593  -2.452  -8.886  1.00  0.00     0.049 A 
BRANCH  33  36
ATOM     36  C   UNL     1      17.704  -1.991 -10.481  1.00  0.00     0.019 A 
ATOM     37  C   UNL     1      17.645  -3.277 -11.039  1.00  0.00     0.013 A 
ATOM     38  C   UNL     1      16.813  -1.060 -11.023  1.00  0.00     0.121 A 
ATOM     39  C   UNL     1      16.750  -3.565 -12.072  1.00  0.00     0.021 A 
ATOM     40  N   UNL     1      15.913  -1.313 -12.007  1.00  0.00    -0.264 NA
ATOM     41  C   UNL     1      15.911  -2.559 -12.518  1.00  0.00     0.111 A 
ENDBRANCH  33  36
ENDBRANCH  28  30
ENDBRANCH   2  28
TORSDOF 7
BEGIN_RES MET A 624
REMARK  4 active torsions:
REMARK  status: ('A' for Active; 'I' for Inactive)
REMARK    1  A    between atoms: CA   and  CB  
REMARK    2  A    between atoms: CB   and  CG  
REMARK    3  A    between atoms: CG   and  SD  
REMARK    4  A    between atoms: SD   and  CE  
ROOT
ATOM      1  CA  MET A 624      14.156  -1.311 -16.529  1.00 37.55     0.090 C 
ENDROOT
BRANCH   1   2
ATOM      2  CB  MET A 624      14.290  -0.416 -17.759  1.00 35.24    -0.030 C 
ATOM      3  HB2 MET A 624      14.716  -0.977 -18.623  1.00  0.00     0.037 H 
ATOM      4  HB1 MET A 624      13.292  -0.165 -18.187  1.00  0.00     0.037 H 
BRANCH   2   5
ATOM      5  CG  MET A 624      15.096   0.839 -17.465  1.00 41.56    -0.021 C 
ATOM      6  HG2 MET A 624      16.044   0.830 -18.052  1.00  0.00     0.049 H 
ATOM      7  HG1 MET A 624      15.504   0.796 -16.429  1.00  0.00     0.049 H 
BRANCH   5   8
ATOM      8  SD  MET A 624      14.228   2.394 -17.721  1.00 46.36    -0.173 SA
BRANCH   8   9
ATOM      9  CE  MET A 624      14.026   2.400 -19.500  1.00 43.21    -0.035 C 
ATOM     10  HE3 MET A 624      13.564   1.481 -19.930  1.00  0.00     0.041 H 
ATOM     11  HE1 MET A 624      15.067   2.614 -19.840  1.00  0.00     0.041 H 
ATOM     12  HE2 MET A 624      13.246   3.097 -19.888  1.00  0.00     0.041 H 
ENDBRANCH   8   9
ENDBRANCH   5   8
ENDBRANCH   2   5
ENDBRANCH   1   2
END_RES MET A 624
BEGIN_RES LEU A 625
REMARK  4 active torsions:
REMARK  status: ('A' for Active; 'I' for Inactive)
REMARK    5  A    between atoms: CA   and  CB  
REMARK    6  A    between atoms: CB   and  CG  
REMARK    7  A    between atoms: CG   and  CD1 
REMARK    8  A    between atoms: CG   and  CD2 
ROOT
ATOM     13  CA  LEU A 625      17.135  -3.624 -16.776  1.00 49.20     0.089 C 
ENDROOT
BRANCH  13  14
ATOM     14  CB  LEU A 625      17.051  -5.150 -16.753  1.00 47.95    -0.035 C 
ATOM     15  HB2 LEU A 625      16.531  -5.505 -17.673  1.00  0.00     0.037 H 
ATOM     16  HB1 LEU A 625      18.068  -5.578 -16.911  1.00  0.00     0.037 H 
BRANCH  14  17
ATOM     17  CG  LEU A 625      16.413  -5.800 -15.529  1.00 41.83    -0.059 C 
ATOM     18  HG  LEU A 625      15.731  -5.062 -15.044  1.00  0.00     0.038 H 
BRANCH  17  19
ATOM     19  CD1 LEU A 625      15.602  -6.998 -15.971  1.00 45.22    -0.073 C 
ATOM     20 3HD1 LEU A 625      14.608  -6.707 -16.386  1.00  0.00     0.028 H 
ATOM     21 2HD1 LEU A 625      16.020  -7.478 -16.887  1.00  0.00     0.028 H 
ATOM     22 1HD1 LEU A 625      15.515  -7.713 -15.120  1.00  0.00     0.028 H 
ENDBRANCH  17  19
BRANCH  17  23
ATOM     23  CD2 LEU A 625      17.484  -6.204 -14.533  1.00 48.58    -0.073 C 
ATOM     24 1HD2 LEU A 625      18.051  -5.307 -14.191  1.00  0.00     0.028 H 
ATOM     25 3HD2 LEU A 625      17.060  -6.780 -13.677  1.00  0.00     0.028 H 
ATOM     26 2HD2 LEU A 625      18.158  -6.992 -14.943  1.00  0.00     0.028 H 
ENDBRANCH  17  23
ENDBRANCH  14  17
ENDBRANCH  13  14
END_RES LEU A 625
BEGIN_RES CYS A 673
REMARK  1 active torsions:
REMARK  status: ('A' for Active; 'I' for Inactive)
REMARK    9  A    between atoms: CA   and  CB  
ROOT
ATOM     27  CA  CYS A 673       6.053  10.339  -6.366  1.00 37.53     0.098 C 
ENDROOT
BRANCH  27  28
ATOM     28  CB  CYS A 673       6.430   9.481  -5.160  1.00 34.59     0.013 C 
ATOM     29  SG  CYS A 673       5.024   8.522  -4.527  1.00 37.22    -0.095 SA
ATOM     30  HB1 CYS A 673       7.296   8.819  -5.393  1.00  0.00     0.053 H 
ATOM     31  HB2 CYS A 673       6.890  10.099  -4.355  1.00  0.00     0.053 H 
ENDBRANCH  27  28
END_RES CYS A 673
ENDMDL
MODEL 7
REMARK VINA RESULT:   -10.524      1.825      3.061
REMARK INTER + INTRA:         -14.885
REMARK INTER:                 -14.830
REMARK INTRA:                  -0.054
REMARK UNBOUND:                -0.054
REMARK SMILES Cc1cn(-c2cc(NC(=O)c3ccc(C)c(Nc4nccc(-c5cccnc5)n4)c3)cc(C(F)(F)F)c2)cn1
REMARK SMILES IDX 11 1 16 2 14 3 30 4 12 5 13 6 15 7 9 8 8 9 10 10 7 12 32 13
REMARK SMILES IDX 37 14 31 15 5 16 6 17 33 18 34 19 35 20 36 21 4 22 3 23
REMARK SMILES IDX 38 24 2 25 39 26 1 27 17 28 18 30 29 31 19 32 22 33 20 34
REMARK SMILES IDX 21 35 23 36 24 37 28 38 25 39 27 40 26 41
REMARK H PARENT 8 11 17 29
ROOT
ATOM      1  C   UNL     1      15.953   2.221  -6.173  1.00  0.00     0.042 A 
ATOM      2  C   UNL     1      17.919   1.281  -7.286  1.00  0.00     0.045 A 
ATOM      3  C   UNL     1      18.701   1.629  -6.164  1.00  0.00    -0.027 A 
ATOM      4  C   UNL     1      16.549   1.581  -7.267  1.00  0.00     0.040 A 
ATOM      5  C   UNL     1      16.735   2.546  -5.063  1.00  0.00     0.014 A 
ATOM      6  C   UNL     1      18.098   2.253  -5.059  1.00  0.00     0.006 A 
ATOM      7  C   UNL     1      20.181   1.355  -6.120  1.00  0.00     0.046 C 
ENDROOT
BRANCH   1   8
ATOM      8  C   UNL     1      14.492   2.523  -6.128  1.00  0.00     0.255 C 
ATOM      9  N   UNL     1      13.934   2.949  -7.320  1.00  0.00    -0.322 N 
ATOM     10  O   UNL     1      13.904   2.381  -5.062  1.00  0.00    -0.269 OA
ATOM     11  H   UNL     1      14.564   3.125  -8.091  1.00  0.00     0.170 HD
BRANCH   9  12
ATOM     12  C   UNL     1      12.572   3.190  -7.591  1.00  0.00     0.044 A 
ATOM     13  C   UNL     1      10.307   2.502  -8.145  1.00  0.00     0.060 A 
ATOM     14  C   UNL     1       9.899   3.847  -8.146  1.00  0.00     0.039 A 
ATOM     15  C   UNL     1      11.648   2.188  -7.880  1.00  0.00     0.039 A 
ATOM     16  C   UNL     1      10.819   4.869  -7.876  1.00  0.00     0.049 A 
ATOM     17  C   UNL     1      12.149   4.527  -7.585  1.00  0.00     0.052 A 
BRANCH  13  18
ATOM     18  C   UNL     1       9.336   1.394  -8.466  1.00  0.00     0.416 C 
ATOM     19  F   UNL     1       8.064   1.674  -8.061  1.00  0.00    -0.166 F 
ATOM     20  F   UNL     1       9.249   1.144  -9.801  1.00  0.00    -0.166 F 
ATOM     21  F   UNL     1       9.654   0.209  -7.877  1.00  0.00    -0.166 F 
ENDBRANCH  13  18
BRANCH  16  22
ATOM     22  N   UNL     1      10.422   6.237  -7.912  1.00  0.00    -0.306 N 
ATOM     23  C   UNL     1      11.196   7.341  -7.621  1.00  0.00     0.116 A 
ATOM     24  C   UNL     1       9.190   6.744  -8.265  1.00  0.00     0.204 A 
ATOM     25  C   UNL     1      10.395   8.445  -7.813  1.00  0.00     0.056 A 
ATOM     26  N   UNL     1       9.145   8.056  -8.208  1.00  0.00    -0.242 NA
ATOM     27  C   UNL     1      10.725   9.877  -7.651  1.00  0.00     0.068 C 
ENDBRANCH  16  22
ENDBRANCH   9  12
ENDBRANCH   1   8
BRANCH   2  28
ATOM     28  N   UNL     1      18.510   0.702  -8.417  1.00  0.00    -0.324 N 
ATOM     29  H   UNL     1      18.670   1.292  -9.219  1.00  0.00     0.170 HD
BRANCH  28  30
ATOM     30  C   UNL     1      18.707  -0.628  -8.780  1.00  0.00     0.227 A 
ATOM     31  N   UNL     1      17.798  -1.296  -9.508  1.00  0.00    -0.213 NA
ATOM     32  N   UNL     1      19.886  -1.151  -8.418  1.00  0.00    -0.221 NA
ATOM     33  C   UNL     1      18.092  -2.553  -9.914  1.00  0.00     0.077 A 
ATOM     34  C   UNL     1      20.148  -2.407  -8.816  1.00  0.00     0.117 A 
ATOM     35  C   UNL     1      19.285  -3.156  -9.575  1.00  0.00     0.049 A 
BRANCH  33  36
ATOM     36  C   UNL     1      17.062  -3.197 -10.750  1.00  0.00     0.019 A 
ATOM     37  C   UNL     1      16.519  -2.614 -11.906  1.00  0.00     0.013 A 
ATOM     38  C   UNL     1      16.560  -4.460 -10.423  1.00  0.00     0.121 A 
ATOM     39  C   UNL     1      15.538  -3.279 -12.646  1.00  0.00     0.021 A 
ATOM     40  N   UNL     1      15.627  -5.144 -11.133  1.00  0.00    -0.264 NA
ATOM     41  C   UNL     1      15.128  -4.531 -12.224  1.00  0.00     0.111 A 
ENDBRANCH  33  36
ENDBRANCH  28  30
ENDBRANCH   2  28
TORSDOF 7
BEGIN_RES MET A 624
REMARK  4 active torsions:
REMARK  status: ('A' for Active; 'I' for Inactive)
REMARK    1  A    between atoms: CA   and  CB  
REMARK    2  A    between atoms: CB   and  CG  
REMARK    3  A    between atoms: CG   and  SD  
REMARK    4  A    between atoms: SD   and  CE  
ROOT
ATOM      1  CA  MET A 624      14.156  -1.311 -16.529  1.00 37.55     0.090 C 
ENDROOT
BRANCH   1   2
ATOM      2  CB  MET A 624      14.290  -0.416 -17.759  1.00 35.24    -0.030 C 
ATOM      3  HB2 MET A 624      15.018  -0.839 -18.490  1.00  0.00     0.037 H 
ATOM      4  HB1 MET A 624      13.370  -0.451 -18.386  1.00  0.00     0.037 H 
BRANCH   2   5
ATOM      5  CG  MET A 624      14.650   1.013 -17.387  1.00 41.56    -0.021 C 
ATOM      6  HG2 MET A 624      15.697   1.237 -17.699  1.00  0.00     0.049 H 
ATOM      7  HG1 MET A 624      14.749   1.106 -16.281  1.00  0.00     0.049 H 
BRANCH   5   8
ATOM      8  SD  MET A 624      13.537   2.281 -18.013  1.00 46.36    -0.173 SA
BRANCH   8   9
ATOM      9  CE  MET A 624      14.596   3.142 -19.172  1.00 43.21    -0.035 C 
ATOM     10  HE3 MET A 624      15.690   2.985 -19.024  1.00  0.00     0.041 H 
ATOM     11  HE1 MET A 624      14.246   4.194 -19.052  1.00  0.00     0.041 H 
ATOM     12  HE2 MET A 624      14.578   2.750 -20.216  1.00  0.00     0.041 H 
ENDBRANCH   8   9
ENDBRANCH   5   8
ENDBRANCH   2   5
ENDBRANCH   1   2
END_RES MET A 624
BEGIN_RES LEU A 625
REMARK  4 active torsions:
REMARK  status: ('A' for Active; 'I' for Inactive)
REMARK    5  A    between atoms: CA   and  CB  
REMARK    6  A    between atoms: CB   and  CG  
REMARK    7  A    between atoms: CG   and  CD1 
REMARK    8  A    between atoms: CG   and  CD2 
ROOT
ATOM     13  CA  LEU A 625      17.135  -3.624 -16.776  1.00 49.20     0.089 C 
ENDROOT
BRANCH  13  14
ATOM     14  CB  LEU A 625      17.051  -5.150 -16.753  1.00 47.95    -0.035 C 
ATOM     15  HB2 LEU A 625      16.504  -5.503 -17.658  1.00  0.00     0.037 H 
ATOM     16  HB1 LEU A 625      18.063  -5.578 -16.941  1.00  0.00     0.037 H 
BRANCH  14  17
ATOM     17  CG  LEU A 625      16.449  -5.802 -15.512  1.00 41.83    -0.059 C 
ATOM     18  HG  LEU A 625      15.762  -5.073 -15.020  1.00  0.00     0.038 H 
BRANCH  17  19
ATOM     19  CD1 LEU A 625      15.653  -7.018 -15.929  1.00 45.22    -0.073 C 
ATOM     20 3HD1 LEU A 625      16.296  -7.919 -16.066  1.00  0.00     0.028 H 
ATOM     21 2HD1 LEU A 625      15.011  -7.408 -15.104  1.00  0.00     0.028 H 
ATOM     22 1HD1 LEU A 625      15.065  -6.773 -16.844  1.00  0.00     0.028 H 
ENDBRANCH  17  19
BRANCH  17  23
ATOM     23  CD2 LEU A 625      17.546  -6.177 -14.534  1.00 48.58    -0.073 C 
ATOM     24 1HD2 LEU A 625      17.199  -6.996 -13.861  1.00  0.00     0.028 H 
ATOM     25 3HD2 LEU A 625      18.497  -6.441 -15.054  1.00  0.00     0.028 H 
ATOM     26 2HD2 LEU A 625      17.913  -5.295 -13.960  1.00  0.00     0.028 H 
ENDBRANCH  17  23
ENDBRANCH  14  17
ENDBRANCH  13  14
END_RES LEU A 625
BEGIN_RES CYS A 673
REMARK  1 active torsions:
REMARK  status: ('A' for Active; 'I' for Inactive)
REMARK    9  A    between atoms: CA   and  CB  
ROOT
ATOM     27  CA  CYS A 673       6.053  10.339  -6.366  1.00 37.53     0.098 C 
ENDROOT
BRANCH  27  28
ATOM     28  CB  CYS A 673       6.430   9.481  -5.160  1.00 34.59     0.013 C 
ATOM     29  SG  CYS A 673       5.023   8.523  -4.526  1.00 37.22    -0.095 SA
ATOM     30  HB1 CYS A 673       7.296   8.818  -5.393  1.00  0.00     0.053 H 
ATOM     31  HB2 CYS A 673       6.891  10.099  -4.355  1.00  0.00     0.053 H 
ENDBRANCH  27  28
END_RES CYS A 673
ENDMDL
MODEL 8
REMARK VINA RESULT:   -10.487      3.309      9.321
REMARK INTER + INTRA:         -14.833
REMARK INTER:                 -14.613
REMARK INTRA:                  -0.220
REMARK UNBOUND:                -0.054
REMARK SMILES Cc1cn(-c2cc(NC(=O)c3ccc(C)c(Nc4nccc(-c5cccnc5)n4)c3)cc(C(F)(F)F)c2)cn1
REMARK SMILES IDX 11 1 16 2 14 3 30 4 12 5 13 6 15 7 9 8 8 9 10 10 7 12 32 13
REMARK SMILES IDX 37 14 31 15 5 16 6 17 33 18 34 19 35 20 36 21 4 22 3 23
REMARK SMILES IDX 38 24 2 25 39 26 1 27 17 28 18 30 29 31 19 32 22 33 20 34
REMARK SMILES IDX 21 35 23 36 24 37 28 38 25 39 27 40 26 41
REMARK H PARENT 8 11 17 29
ROOT
ATOM      1  C   UNL     1      16.083   2.513  -7.246  1.00  0.00     0.042 A 
ATOM      2  C   UNL     1      14.461   4.332  -7.028  1.00  0.00     0.045 A 
ATOM      3  C   UNL     1      14.649   4.310  -5.629  1.00  0.00    -0.027 A 
ATOM      4  C   UNL     1      15.191   3.430  -7.816  1.00  0.00     0.040 A 
ATOM      5  C   UNL     1      16.271   2.513  -5.862  1.00  0.00     0.014 A 
ATOM      6  C   UNL     1      15.559   3.404  -5.061  1.00  0.00     0.006 A 
ATOM      7  C   UNL     1      13.887   5.236  -4.718  1.00  0.00     0.046 C 
ENDROOT
BRANCH   1   8
ATOM      8  C   UNL     1      16.886   1.565  -8.074  1.00  0.00     0.255 C 
ATOM      9  N   UNL     1      16.426   0.260  -8.102  1.00  0.00    -0.322 N 
ATOM     10  O   UNL     1      17.876   1.997  -8.652  1.00  0.00    -0.269 OA
ATOM     11  H   UNL     1      15.658   0.025  -7.487  1.00  0.00     0.170 HD
BRANCH   9  12
ATOM     12  C   UNL     1      16.916  -0.805  -8.885  1.00  0.00     0.044 A 
ATOM     13  C   UNL     1      16.880  -2.289 -10.809  1.00  0.00     0.060 A 
ATOM     14  C   UNL     1      17.998  -2.973 -10.301  1.00  0.00     0.039 A 
ATOM     15  C   UNL     1      16.340  -1.216 -10.084  1.00  0.00     0.039 A 
ATOM     16  C   UNL     1      18.578  -2.584  -9.086  1.00  0.00     0.049 A 
ATOM     17  C   UNL     1      18.038  -1.488  -8.395  1.00  0.00     0.052 A 
BRANCH  13  18
ATOM     18  C   UNL     1      16.225  -2.717 -12.098  1.00  0.00     0.416 C 
ATOM     19  F   UNL     1      15.271  -3.674 -11.913  1.00  0.00    -0.166 F 
ATOM     20  F   UNL     1      15.596  -1.690 -12.732  1.00  0.00    -0.166 F 
ATOM     21  F   UNL     1      17.099  -3.241 -12.999  1.00  0.00    -0.166 F 
ENDBRANCH  13  18
BRANCH  16  22
ATOM     22  N   UNL     1      19.689  -3.296  -8.547  1.00  0.00    -0.306 N 
ATOM     23  C   UNL     1      21.023  -3.121  -8.854  1.00  0.00     0.116 A 
ATOM     24  C   UNL     1      19.666  -4.289  -7.594  1.00  0.00     0.204 A 
ATOM     25  C   UNL     1      21.726  -4.013  -8.074  1.00  0.00     0.056 A 
ATOM     26  N   UNL     1      20.866  -4.739  -7.298  1.00  0.00    -0.242 NA
ATOM     27  C   UNL     1      23.185  -4.239  -7.999  1.00  0.00     0.068 C 
ENDBRANCH  16  22
ENDBRANCH   9  12
ENDBRANCH   1   8
BRANCH   2  28
ATOM     28  N   UNL     1      13.523   5.195  -7.609  1.00  0.00    -0.324 N 
ATOM     29  H   UNL     1      13.759   6.173  -7.674  1.00  0.00     0.170 HD
BRANCH  28  30
ATOM     30  C   UNL     1      12.171   5.030  -7.904  1.00  0.00     0.227 A 
ATOM     31  N   UNL     1      11.616   3.811  -7.982  1.00  0.00    -0.213 NA
ATOM     32  N   UNL     1      11.470   6.165  -8.023  1.00  0.00    -0.221 NA
ATOM     33  C   UNL     1      10.279   3.720  -8.171  1.00  0.00     0.077 A 
ATOM     34  C   UNL     1      10.148   6.051  -8.229  1.00  0.00     0.117 A 
ATOM     35  C   UNL     1       9.495   4.846  -8.307  1.00  0.00     0.049 A 
BRANCH  33  36
ATOM     36  C   UNL     1       9.743   2.346  -8.195  1.00  0.00     0.019 A 
ATOM     37  C   UNL     1      10.034   1.413  -9.203  1.00  0.00     0.013 A 
ATOM     38  C   UNL     1       8.892   1.891  -7.184  1.00  0.00     0.121 A 
ATOM     39  C   UNL     1       9.482   0.130  -9.167  1.00  0.00     0.021 A 
ATOM     40  N   UNL     1       8.361   0.645  -7.104  1.00  0.00    -0.264 NA
ATOM     41  C   UNL     1       8.659  -0.205  -8.106  1.00  0.00     0.111 A 
ENDBRANCH  33  36
ENDBRANCH  28  30
ENDBRANCH   2  28
TORSDOF 7
BEGIN_RES MET A 624
REMARK  4 active torsions:
REMARK  status: ('A' for Active; 'I' for Inactive)
REMARK    1  A    between atoms: CA   and  CB  
REMARK    2  A    between atoms: CB   and  CG  
REMARK    3  A    between atoms: CG   and  SD  
REMARK    4  A    between atoms: SD   and  CE  
ROOT
ATOM      1  CA  MET A 624      14.156  -1.311 -16.529  1.00 37.55     0.090 C 
ENDROOT
BRANCH   1   2
ATOM      2  CB  MET A 624      14.290  -0.416 -17.759  1.00 35.24    -0.030 C 
ATOM      3  HB2 MET A 624      15.006  -0.847 -18.497  1.00  0.00     0.037 H 
ATOM      4  HB1 MET A 624      13.364  -0.438 -18.378  1.00  0.00     0.037 H 
BRANCH   2   5
ATOM      5  CG  MET A 624      14.672   1.008 -17.389  1.00 41.56    -0.021 C 
ATOM      6  HG2 MET A 624      15.715   1.223 -17.721  1.00  0.00     0.049 H 
ATOM      7  HG1 MET A 624      14.794   1.095 -16.284  1.00  0.00     0.049 H 
BRANCH   5   8
ATOM      8  SD  MET A 624      13.559   2.289 -17.987  1.00 46.36    -0.173 SA
BRANCH   8   9
ATOM      9  CE  MET A 624      14.623   3.186 -19.113  1.00 43.21    -0.035 C 
ATOM     10  HE3 MET A 624      14.873   4.228 -18.805  1.00  0.00     0.041 H 
ATOM     11  HE1 MET A 624      14.059   3.096 -20.071  1.00  0.00     0.041 H 
ATOM     12  HE2 MET A 624      15.682   2.835 -19.150  1.00  0.00     0.041 H 
ENDBRANCH   8   9
ENDBRANCH   5   8
ENDBRANCH   2   5
ENDBRANCH   1   2
END_RES MET A 624
BEGIN_RES LEU A 625
REMARK  4 active torsions:
REMARK  status: ('A' for Active; 'I' for Inactive)
REMARK    5  A    between atoms: CA   and  CB  
REMARK    6  A    between atoms: CB   and  CG  
REMARK    7  A    between atoms: CG   and  CD1 
REMARK    8  A    between atoms: CG   and  CD2 
ROOT
ATOM     13  CA  LEU A 625      17.135  -3.624 -16.776  1.00 49.20     0.089 C 
ENDROOT
BRANCH  13  14
ATOM     14  CB  LEU A 625      17.051  -5.150 -16.753  1.00 47.95    -0.035 C 
ATOM     15  HB2 LEU A 625      16.529  -5.505 -17.672  1.00  0.00     0.037 H 
ATOM     16  HB1 LEU A 625      18.068  -5.578 -16.913  1.00  0.00     0.037 H 
BRANCH  14  17
ATOM     17  CG  LEU A 625      16.415  -5.800 -15.528  1.00 41.83    -0.059 C 
ATOM     18  HG  LEU A 625      15.711  -5.073 -15.060  1.00  0.00     0.038 H 
BRANCH  17  19
ATOM     19  CD1 LEU A 625      15.638  -7.022 -15.964  1.00 45.22    -0.073 C 
ATOM     20 3HD1 LEU A 625      15.917  -7.358 -16.990  1.00  0.00     0.028 H 
ATOM     21 2HD1 LEU A 625      15.945  -7.940 -15.409  1.00  0.00     0.028 H 
ATOM     22 1HD1 LEU A 625      14.547  -6.813 -15.868  1.00  0.00     0.028 H 
ENDBRANCH  17  19
BRANCH  17  23
ATOM     23  CD2 LEU A 625      17.484  -6.167 -14.516  1.00 48.58    -0.073 C 
ATOM     24 1HD2 LEU A 625      18.108  -5.275 -14.274  1.00  0.00     0.028 H 
ATOM     25 3HD2 LEU A 625      17.049  -6.631 -13.600  1.00  0.00     0.028 H 
ATOM     26 2HD2 LEU A 625      18.104  -7.028 -14.858  1.00  0.00     0.028 H 
ENDBRANCH  17  23
ENDBRANCH  14  17
ENDBRANCH  13  14
END_RES LEU A 625
BEGIN_RES CYS A 673
REMARK  1 active torsions:
REMARK  status: ('A' for Active; 'I' for Inactive)
REMARK    9  A    between atoms: CA   and  CB  
ROOT
ATOM     27  CA  CYS A 673       6.053  10.339  -6.366  1.00 37.53     0.098 C 
ENDROOT
BRANCH  27  28
ATOM     28  CB  CYS A 673       6.430   9.481  -5.160  1.00 34.59     0.013 C 
ATOM     29  SG  CYS A 673       5.039   8.477  -4.564  1.00 37.22    -0.095 SA
ATOM     30  HB1 CYS A 673       7.319   8.846  -5.381  1.00  0.00     0.053 H 
ATOM     31  HB2 CYS A 673       6.856  10.104  -4.340  1.00  0.00     0.053 H 
ENDBRANCH  27  28
END_RES CYS A 673
ENDMDL
MODEL 9
REMARK VINA RESULT:   -10.478      2.419      3.789
REMARK INTER + INTRA:         -14.820
REMARK INTER:                 -14.854
REMARK INTRA:                   0.034
REMARK UNBOUND:                -0.054
REMARK SMILES Cc1cn(-c2cc(NC(=O)c3ccc(C)c(Nc4nccc(-c5cccnc5)n4)c3)cc(C(F)(F)F)c2)cn1
REMARK SMILES IDX 11 1 16 2 14 3 30 4 12 5 13 6 15 7 9 8 8 9 10 10 7 12 32 13
REMARK SMILES IDX 37 14 31 15 5 16 6 17 33 18 34 19 35 20 36 21 4 22 3 23
REMARK SMILES IDX 38 24 2 25 39 26 1 27 17 28 18 30 29 31 19 32 22 33 20 34
REMARK SMILES IDX 21 35 23 36 24 37 28 38 25 39 27 40 26 41
REMARK H PARENT 8 11 17 29
ROOT
ATOM      1  C   UNL     1      16.238   1.600  -6.487  1.00  0.00     0.042 A 
ATOM      2  C   UNL     1      17.784  -0.097  -7.332  1.00  0.00     0.045 A 
ATOM      3  C   UNL     1      18.848   0.582  -6.700  1.00  0.00    -0.027 A 
ATOM      4  C   UNL     1      16.488   0.427  -7.208  1.00  0.00     0.040 A 
ATOM      5  C   UNL     1      17.297   2.253  -5.854  1.00  0.00     0.014 A 
ATOM      6  C   UNL     1      18.592   1.748  -5.960  1.00  0.00     0.006 A 
ATOM      7  C   UNL     1      20.268   0.090  -6.803  1.00  0.00     0.046 C 
ENDROOT
BRANCH   1   8
ATOM      8  C   UNL     1      14.861   2.154  -6.325  1.00  0.00     0.255 C 
ATOM      9  N   UNL     1      14.186   2.430  -7.502  1.00  0.00    -0.322 N 
ATOM     10  O   UNL     1      14.436   2.328  -5.189  1.00  0.00    -0.269 OA
ATOM     11  H   UNL     1      14.704   2.339  -8.366  1.00  0.00     0.170 HD
BRANCH   9  12
ATOM     12  C   UNL     1      12.847   2.845  -7.645  1.00  0.00     0.044 A 
ATOM     13  C   UNL     1      11.096   4.519  -7.848  1.00  0.00     0.060 A 
ATOM     14  C   UNL     1      10.128   3.500  -7.893  1.00  0.00     0.039 A 
ATOM     15  C   UNL     1      12.450   4.178  -7.710  1.00  0.00     0.039 A 
ATOM     16  C   UNL     1      10.509   2.154  -7.810  1.00  0.00     0.049 A 
ATOM     17  C   UNL     1      11.872   1.838  -7.702  1.00  0.00     0.052 A 
BRANCH  13  18
ATOM     18  C   UNL     1      10.699   5.972  -7.903  1.00  0.00     0.416 C 
ATOM     19  F   UNL     1      11.118   6.590  -9.045  1.00  0.00    -0.166 F 
ATOM     20  F   UNL     1       9.349   6.149  -7.864  1.00  0.00    -0.166 F 
ATOM     21  F   UNL     1      11.208   6.710  -6.880  1.00  0.00    -0.166 F 
ENDBRANCH  13  18
BRANCH  16  22
ATOM     22  N   UNL     1       9.531   1.117  -7.817  1.00  0.00    -0.306 N 
ATOM     23  C   UNL     1       8.377   1.051  -7.064  1.00  0.00     0.116 A 
ATOM     24  C   UNL     1       9.522  -0.022  -8.591  1.00  0.00     0.204 A 
ATOM     25  C   UNL     1       7.739  -0.116  -7.422  1.00  0.00     0.056 A 
ATOM     26  N   UNL     1       8.468  -0.778  -8.371  1.00  0.00    -0.242 NA
ATOM     27  C   UNL     1       6.461  -0.671  -6.930  1.00  0.00     0.068 C 
ENDBRANCH  16  22
ENDBRANCH   9  12
ENDBRANCH   1   8
BRANCH   2  28
ATOM     28  N   UNL     1      18.026  -1.234  -8.113  1.00  0.00    -0.324 N 
ATOM     29  H   UNL     1      18.853  -1.775  -7.914  1.00  0.00     0.170 HD
BRANCH  28  30
ATOM     30  C   UNL     1      17.482  -1.659  -9.323  1.00  0.00     0.227 A 
ATOM     31  N   UNL     1      17.285  -2.961  -9.582  1.00  0.00    -0.213 NA
ATOM     32  N   UNL     1      17.108  -0.679 -10.156  1.00  0.00    -0.221 NA
ATOM     33  C   UNL     1      16.660  -3.304 -10.733  1.00  0.00     0.077 A 
ATOM     34  C   UNL     1      16.506  -1.044 -11.300  1.00  0.00     0.117 A 
ATOM     35  C   UNL     1      16.251  -2.349 -11.639  1.00  0.00     0.049 A 
BRANCH  33  36
ATOM     36  C   UNL     1      16.439  -4.751 -10.917  1.00  0.00     0.019 A 
ATOM     37  C   UNL     1      15.346  -5.290 -11.612  1.00  0.00     0.013 A 
ATOM     38  C   UNL     1      17.336  -5.685 -10.392  1.00  0.00     0.121 A 
ATOM     39  C   UNL     1      15.194  -6.673 -11.740  1.00  0.00     0.021 A 
ATOM     40  N   UNL     1      17.233  -7.032 -10.520  1.00  0.00    -0.264 NA
ATOM     41  C   UNL     1      16.156  -7.496 -11.182  1.00  0.00     0.111 A 
ENDBRANCH  33  36
ENDBRANCH  28  30
ENDBRANCH   2  28
TORSDOF 7
BEGIN_RES MET A 624
REMARK  4 active torsions:
REMARK  status: ('A' for Active; 'I' for Inactive)
REMARK    1  A    between atoms: CA   and  CB  
REMARK    2  A    between atoms: CB   and  CG  
REMARK    3  A    between atoms: CG   and  SD  
REMARK    4  A    between atoms: SD   and  CE  
ROOT
ATOM      1  CA  MET A 624      14.156  -1.311 -16.529  1.00 37.55     0.090 C 
ENDROOT
BRANCH   1   2
ATOM      2  CB  MET A 624      14.290  -0.416 -17.759  1.00 35.24    -0.030 C 
ATOM      3  HB2 MET A 624      14.997  -0.853 -18.502  1.00  0.00     0.037 H 
ATOM      4  HB1 MET A 624      13.359  -0.429 -18.372  1.00  0.00     0.037 H 
BRANCH   2   5
ATOM      5  CG  MET A 624      14.687   1.004 -17.390  1.00 41.56    -0.021 C 
ATOM      6  HG2 MET A 624      15.735   1.204 -17.715  1.00  0.00     0.049 H 
ATOM      7  HG1 MET A 624      14.803   1.093 -16.285  1.00  0.00     0.049 H 
BRANCH   5   8
ATOM      8  SD  MET A 624      13.596   2.298 -17.999  1.00 46.36    -0.173 SA
BRANCH   8   9
ATOM      9  CE  MET A 624      14.650   3.120 -19.190  1.00 43.21    -0.035 C 
ATOM     10  HE3 MET A 624      14.632   4.234 -19.152  1.00  0.00     0.041 H 
ATOM     11  HE1 MET A 624      14.296   2.671 -20.148  1.00  0.00     0.041 H 
ATOM     12  HE2 MET A 624      15.745   3.030 -18.999  1.00  0.00     0.041 H 
ENDBRANCH   8   9
ENDBRANCH   5   8
ENDBRANCH   2   5
ENDBRANCH   1   2
END_RES MET A 624
BEGIN_RES LEU A 625
REMARK  4 active torsions:
REMARK  status: ('A' for Active; 'I' for Inactive)
REMARK    5  A    between atoms: CA   and  CB  
REMARK    6  A    between atoms: CB   and  CG  
REMARK    7  A    between atoms: CG   and  CD1 
REMARK    8  A    between atoms: CG   and  CD2 
ROOT
ATOM     13  CA  LEU A 625      17.135  -3.624 -16.776  1.00 49.20     0.089 C 
ENDROOT
BRANCH  13  14
ATOM     14  CB  LEU A 625      17.051  -5.150 -16.753  1.00 47.95    -0.035 C 
ATOM     15  HB2 LEU A 625      16.504  -5.503 -17.658  1.00  0.00     0.037 H 
ATOM     16  HB1 LEU A 625      18.063  -5.578 -16.941  1.00  0.00     0.037 H 
BRANCH  14  17
ATOM     17  CG  LEU A 625      16.450  -5.802 -15.512  1.00 41.83    -0.059 C 
ATOM     18  HG  LEU A 625      15.763  -5.073 -15.020  1.00  0.00     0.038 H 
BRANCH  17  19
ATOM     19  CD1 LEU A 625      15.653  -7.018 -15.929  1.00 45.22    -0.073 C 
ATOM     20 3HD1 LEU A 625      14.694  -7.109 -15.366  1.00  0.00     0.028 H 
ATOM     21 2HD1 LEU A 625      15.225  -6.913 -16.953  1.00  0.00     0.028 H 
ATOM     22 1HD1 LEU A 625      16.293  -7.925 -15.827  1.00  0.00     0.028 H 
ENDBRANCH  17  19
BRANCH  17  23
ATOM     23  CD2 LEU A 625      17.547  -6.178 -14.534  1.00 48.58    -0.073 C 
ATOM     24 1HD2 LEU A 625      18.480  -6.440 -15.085  1.00  0.00     0.028 H 
ATOM     25 3HD2 LEU A 625      17.721  -5.379 -13.776  1.00  0.00     0.028 H 
ATOM     26 2HD2 LEU A 625      17.228  -6.993 -13.843  1.00  0.00     0.028 H 
ENDBRANCH  17  23
ENDBRANCH  14  17
ENDBRANCH  13  14
END_RES LEU A 625
BEGIN_RES CYS A 673
REMARK  1 active torsions:
REMARK  status: ('A' for Active; 'I' for Inactive)
REMARK    9  A    between atoms: CA   and  CB  
ROOT
ATOM     27  CA  CYS A 673       6.053  10.339  -6.366  1.00 37.53     0.098 C 
ENDROOT
BRANCH  27  28
ATOM     28  CB  CYS A 673       6.430   9.481  -5.160  1.00 34.59     0.013 C 
ATOM     29  SG  CYS A 673       5.024   8.520  -4.529  1.00 37.22    -0.095 SA
ATOM     30  HB1 CYS A 673       7.297   8.820  -5.392  1.00  0.00     0.053 H 
ATOM     31  HB2 CYS A 673       6.889  10.099  -4.354  1.00  0.00     0.053 H 
ENDBRANCH  27  28
END_RES CYS A 673
ENDMDL
