MODEL 1
REMARK VINA RESULT:    -7.919      0.000      0.000
REMARK INTER + INTRA:         -16.869
REMARK INTER:                 -14.589
REMARK INTRA:                  -2.280
REMARK UNBOUND:                -2.700
REMARK SMILES CC(C)c1c(C(=O)Nc2ccccc2)c(-c2ccccc2)c(-c2ccc(F)cc2)n1CC[C@@H](O)C[C@@H](O)CC(=O)O
REMARK SMILES IDX 33 1 32 2 31 3 30 4 22 5 15 6 4 7 5 8 23 9 26 10 25 11 28 12
REMARK SMILES IDX 24 13 29 14 27 15 16 16 17 17 21 18 18 19 20 20 19 21 2 22
REMARK SMILES IDX 1 23 3 24 6 25 7 26 8 27 9 29 10 30 14 31 11 32 13 33 12 34
REMARK SMILES IDX 34 35 35 37 36 38 37 39 38 41 39 42 40 43 41 44
REMARK H PARENT 8 28 34 36 37 40 41 45
ROOT
ATOM      1  C   UNL     1       9.496   4.325  -7.942  1.00  0.00     0.118 C 
ENDROOT
BRANCH   1   2
ATOM      2  C   UNL     1      10.170   5.627  -7.510  1.00  0.00     0.053 C 
BRANCH   2   3
ATOM      3  C   UNL     1      11.496   5.856  -8.240  1.00  0.00     0.125 C 
BRANCH   3   4
ATOM      4  N   UNL     1      12.520   6.371  -7.326  1.00  0.00    -0.343 N 
ATOM      5  C   UNL     1      13.530   5.593  -6.778  1.00  0.00     0.057 A 
ATOM      6  C   UNL     1      14.322   6.436  -6.013  1.00  0.00     0.021 A 
ATOM      7  C   UNL     1      12.641   7.691  -6.908  1.00  0.00     0.034 A 
ATOM      8  C   UNL     1      13.768   7.759  -6.084  1.00  0.00     0.069 A 
BRANCH   5   9
ATOM      9  C   UNL     1      13.641   4.144  -6.970  1.00  0.00    -0.001 A 
ATOM     10  C   UNL     1      13.842   1.385  -7.309  1.00  0.00     0.123 A 
ATOM     11  C   UNL     1      14.727   2.223  -7.976  1.00  0.00     0.040 A 
ATOM     12  C   UNL     1      12.860   1.901  -6.469  1.00  0.00     0.040 A 
ATOM     13  C   UNL     1      14.631   3.605  -7.802  1.00  0.00     0.013 A 
ATOM     14  C   UNL     1      12.760   3.283  -6.299  1.00  0.00     0.013 A 
ATOM     15  F   UNL     1      13.936   0.060  -7.475  1.00  0.00    -0.207 F 
ENDBRANCH   5   9
BRANCH   6  16
ATOM     16  C   UNL     1      15.477   5.974  -5.253  1.00  0.00    -0.015 A 
ATOM     17  C   UNL     1      16.755   6.021  -5.820  1.00  0.00     0.009 A 
ATOM     18  C   UNL     1      15.314   5.432  -3.971  1.00  0.00     0.009 A 
ATOM     19  C   UNL     1      17.856   5.532  -5.114  1.00  0.00     0.001 A 
ATOM     20  C   UNL     1      16.416   4.948  -3.265  1.00  0.00     0.001 A 
ATOM     21  C   UNL     1      17.686   4.997  -3.838  1.00  0.00     0.000 A 
ENDBRANCH   6  16
BRANCH   7  22
ATOM     22  C   UNL     1      11.667   8.772  -7.349  1.00  0.00     0.031 C 
ATOM     23  C   UNL     1      12.359  10.091  -7.696  1.00  0.00     0.014 C 
ATOM     24  C   UNL     1      10.540   8.964  -6.336  1.00  0.00     0.014 C 
ENDBRANCH   7  22
BRANCH   8  25
ATOM     25  C   UNL     1      14.279   8.963  -5.411  1.00  0.00     0.258 C 
ATOM     26  O   UNL     1      13.696   9.450  -4.451  1.00  0.00    -0.269 OA
ATOM     27  N   UNL     1      15.438   9.450  -5.985  1.00  0.00    -0.322 N 
ATOM     28  H   UNL     1      15.784   8.933  -6.783  1.00  0.00     0.170 HD
BRANCH  27  29
ATOM     29  C   UNL     1      16.221  10.545  -5.573  1.00  0.00     0.041 A 
ATOM     30  C   UNL     1      17.541  10.441  -5.132  1.00  0.00     0.026 A 
ATOM     31  C   UNL     1      15.620  11.810  -5.621  1.00  0.00     0.026 A 
ATOM     32  C   UNL     1      18.250  11.583  -4.747  1.00  0.00     0.002 A 
ATOM     33  C   UNL     1      16.329  12.951  -5.236  1.00  0.00     0.002 A 
ATOM     34  C   UNL     1      17.645  12.837  -4.799  1.00  0.00     0.000 A 
ENDBRANCH  27  29
ENDBRANCH   8  25
ENDBRANCH   3   4
ENDBRANCH   2   3
ENDBRANCH   1   2
BRANCH   1  35
ATOM     35  O   UNL     1       8.227   4.645  -8.519  1.00  0.00    -0.393 OA
ATOM     36  H   UNL     1       8.192   4.217  -9.394  1.00  0.00     0.210 HD
ENDBRANCH   1  35
BRANCH   1  37
ATOM     37  C   UNL     1      10.309   3.531  -8.976  1.00  0.00     0.064 C 
BRANCH  37  38
ATOM     38  C   UNL     1       9.664   2.218  -9.434  1.00  0.00     0.128 C 
BRANCH  38  39
ATOM     39  O   UNL     1       9.471   2.271 -10.848  1.00  0.00    -0.392 OA
ATOM     40  H   UNL     1       8.873   1.530 -11.077  1.00  0.00     0.210 HD
ENDBRANCH  38  39
BRANCH  38  41
ATOM     41  C   UNL     1      10.546   1.021  -9.070  1.00  0.00     0.154 C 
BRANCH  41  42
ATOM     42  C   UNL     1       9.957   0.271  -7.908  1.00  0.00     0.305 C 
ATOM     43  O   UNL     1       9.221   0.734  -7.051  1.00  0.00    -0.252 OA
BRANCH  42  44
ATOM     44  O   UNL     1      10.300  -1.029  -7.906  1.00  0.00    -0.481 OA
ATOM     45  H   UNL     1       9.558  -1.492  -7.461  1.00  0.00     0.296 HD
ENDBRANCH  42  44
ENDBRANCH  41  42
ENDBRANCH  38  41
ENDBRANCH  37  38
ENDBRANCH   1  37
TORSDOF 15
BEGIN_RES MET A 624
REMARK  4 active torsions:
REMARK  status: ('A' for Active; 'I' for Inactive)
REMARK    1  A    between atoms: CA   and  CB  
REMARK    2  A    between atoms: CB   and  CG  
REMARK    3  A    between atoms: CG   and  SD  
REMARK    4  A    between atoms: SD   and  CE  
ROOT
ATOM      1  CA  MET A 624      14.156  -1.311 -16.529  1.00 37.55     0.090 C 
ENDROOT
BRANCH   1   2
ATOM      2  CB  MET A 624      14.290  -0.416 -17.759  1.00 35.24    -0.030 C 
ATOM      3  HB2 MET A 624      14.990  -0.858 -18.507  1.00  0.00     0.037 H 
ATOM      4  HB1 MET A 624      13.356  -0.422 -18.367  1.00  0.00     0.037 H 
BRANCH   2   5
ATOM      5  CG  MET A 624      14.700   1.001 -17.391  1.00 41.56    -0.021 C 
ATOM      6  HG2 MET A 624      15.752   1.189 -17.710  1.00  0.00     0.049 H 
ATOM      7  HG1 MET A 624      14.809   1.091 -16.285  1.00  0.00     0.049 H 
BRANCH   5   8
ATOM      8  SD  MET A 624      13.626   2.304 -18.011  1.00 46.36    -0.173 SA
BRANCH   8   9
ATOM      9  CE  MET A 624      14.472   2.774 -19.518  1.00 43.21    -0.035 C 
ATOM     10  HE3 MET A 624      15.417   2.221 -19.726  1.00  0.00     0.041 H 
ATOM     11  HE1 MET A 624      14.586   3.874 -19.373  1.00  0.00     0.041 H 
ATOM     12  HE2 MET A 624      13.965   2.469 -20.463  1.00  0.00     0.041 H 
ENDBRANCH   8   9
ENDBRANCH   5   8
ENDBRANCH   2   5
ENDBRANCH   1   2
END_RES MET A 624
BEGIN_RES LEU A 625
REMARK  4 active torsions:
REMARK  status: ('A' for Active; 'I' for Inactive)
REMARK    5  A    between atoms: CA   and  CB  
REMARK    6  A    between atoms: CB   and  CG  
REMARK    7  A    between atoms: CG   and  CD1 
REMARK    8  A    between atoms: CG   and  CD2 
ROOT
ATOM     13  CA  LEU A 625      17.135  -3.624 -16.776  1.00 49.20     0.089 C 
ENDROOT
BRANCH  13  14
ATOM     14  CB  LEU A 625      17.051  -5.150 -16.753  1.00 47.95    -0.035 C 
ATOM     15  HB2 LEU A 625      16.544  -5.506 -17.680  1.00  0.00     0.037 H 
ATOM     16  HB1 LEU A 625      18.071  -5.578 -16.896  1.00  0.00     0.037 H 
BRANCH  14  17
ATOM     17  CG  LEU A 625      16.396  -5.799 -15.538  1.00 41.83    -0.059 C 
ATOM     18  HG  LEU A 625      15.670  -5.079 -15.093  1.00  0.00     0.038 H 
BRANCH  17  19
ATOM     19  CD1 LEU A 625      15.648  -7.036 -15.981  1.00 45.22    -0.073 C 
ATOM     20 3HD1 LEU A 625      16.007  -7.419 -16.966  1.00  0.00     0.028 H 
ATOM     21 2HD1 LEU A 625      15.902  -7.930 -15.363  1.00  0.00     0.028 H 
ATOM     22 1HD1 LEU A 625      14.554  -6.820 -15.983  1.00  0.00     0.028 H 
ENDBRANCH  17  19
BRANCH  17  23
ATOM     23  CD2 LEU A 625      17.446  -6.141 -14.497  1.00 48.58    -0.073 C 
ATOM     24 1HD2 LEU A 625      17.653  -7.236 -14.503  1.00  0.00     0.028 H 
ATOM     25 3HD2 LEU A 625      18.376  -5.541 -14.631  1.00  0.00     0.028 H 
ATOM     26 2HD2 LEU A 625      17.161  -5.776 -13.483  1.00  0.00     0.028 H 
ENDBRANCH  17  23
ENDBRANCH  14  17
ENDBRANCH  13  14
END_RES LEU A 625
BEGIN_RES CYS A 673
REMARK  1 active torsions:
REMARK  status: ('A' for Active; 'I' for Inactive)
REMARK    9  A    between atoms: CA   and  CB  
ROOT
ATOM     27  CA  CYS A 673       6.053  10.339  -6.366  1.00 37.53     0.098 C 
ENDROOT
BRANCH  27  28
ATOM     28  CB  CYS A 673       6.430   9.481  -5.160  1.00 34.59     0.013 C 
ATOM     29  SG  CYS A 673       5.024   8.519  -4.529  1.00 37.22    -0.095 SA
ATOM     30  HB1 CYS A 673       7.298   8.820  -5.392  1.00  0.00     0.053 H 
ATOM     31  HB2 CYS A 673       6.888  10.099  -4.354  1.00  0.00     0.053 H 
ENDBRANCH  27  28
END_RES CYS A 673
ENDMDL
MODEL 2
REMARK VINA RESULT:    -7.770      3.930      8.345
REMARK INTER + INTRA:         -16.603
REMARK INTER:                 -13.003
REMARK INTRA:                  -3.600
REMARK UNBOUND:                -2.700
REMARK SMILES CC(C)c1c(C(=O)Nc2ccccc2)c(-c2ccccc2)c(-c2ccc(F)cc2)n1CC[C@@H](O)C[C@@H](O)CC(=O)O
REMARK SMILES IDX 33 1 32 2 31 3 30 4 22 5 15 6 4 7 5 8 23 9 26 10 25 11 28 12
REMARK SMILES IDX 24 13 29 14 27 15 16 16 17 17 21 18 18 19 20 20 19 21 2 22
REMARK SMILES IDX 1 23 3 24 6 25 7 26 8 27 9 29 10 30 14 31 11 32 13 33 12 34
REMARK SMILES IDX 34 35 35 37 36 38 37 39 38 41 39 42 40 43 41 44
REMARK H PARENT 8 28 34 36 37 40 41 45
ROOT
ATOM      1  C   UNL     1      15.551   7.057  -4.374  1.00  0.00     0.118 C 
ENDROOT
BRANCH   1   2
ATOM      2  C   UNL     1      16.264   5.828  -3.812  1.00  0.00     0.053 C 
BRANCH   2   3
ATOM      3  C   UNL     1      15.353   4.596  -3.791  1.00  0.00     0.125 C 
BRANCH   3   4
ATOM      4  N   UNL     1      15.946   3.488  -4.545  1.00  0.00    -0.343 N 
ATOM      5  C   UNL     1      15.591   3.160  -5.845  1.00  0.00     0.057 A 
ATOM      6  C   UNL     1      16.397   2.099  -6.230  1.00  0.00     0.021 A 
ATOM      7  C   UNL     1      16.949   2.643  -4.086  1.00  0.00     0.034 A 
ATOM      8  C   UNL     1      17.252   1.762  -5.127  1.00  0.00     0.069 A 
BRANCH   5   9
ATOM      9  C   UNL     1      14.514   3.819  -6.591  1.00  0.00    -0.001 A 
ATOM     10  C   UNL     1      12.452   5.049  -8.004  1.00  0.00     0.123 A 
ATOM     11  C   UNL     1      13.766   5.433  -8.240  1.00  0.00     0.040 A 
ATOM     12  C   UNL     1      12.149   4.056  -7.079  1.00  0.00     0.040 A 
ATOM     13  C   UNL     1      14.801   4.813  -7.535  1.00  0.00     0.013 A 
ATOM     14  C   UNL     1      13.182   3.439  -6.371  1.00  0.00     0.013 A 
ATOM     15  F   UNL     1      11.460   5.643  -8.681  1.00  0.00    -0.207 F 
ENDBRANCH   5   9
BRANCH   6  16
ATOM     16  C   UNL     1      16.298   1.454  -7.534  1.00  0.00    -0.015 A 
ATOM     17  C   UNL     1      15.454   0.352  -7.710  1.00  0.00     0.009 A 
ATOM     18  C   UNL     1      17.083   1.896  -8.608  1.00  0.00     0.009 A 
ATOM     19  C   UNL     1      15.396  -0.299  -8.943  1.00  0.00     0.001 A 
ATOM     20  C   UNL     1      17.019   1.247  -9.842  1.00  0.00     0.001 A 
ATOM     21  C   UNL     1      16.177   0.149 -10.008  1.00  0.00     0.000 A 
ENDBRANCH   6  16
BRANCH   7  22
ATOM     22  C   UNL     1      17.534   2.766  -2.688  1.00  0.00     0.031 C 
ATOM     23  C   UNL     1      18.914   3.425  -2.676  1.00  0.00     0.014 C 
ATOM     24  C   UNL     1      17.531   1.426  -1.955  1.00  0.00     0.014 C 
ENDBRANCH   7  22
BRANCH   8  25
ATOM     25  C   UNL     1      18.256   0.687  -5.090  1.00  0.00     0.258 C 
ATOM     26  O   UNL     1      19.451   0.930  -5.188  1.00  0.00    -0.269 OA
ATOM     27  N   UNL     1      17.695  -0.568  -4.947  1.00  0.00    -0.322 N 
ATOM     28  H   UNL     1      16.685  -0.595  -4.890  1.00  0.00     0.170 HD
BRANCH  27  29
ATOM     29  C   UNL     1      18.353  -1.807  -4.823  1.00  0.00     0.041 A 
ATOM     30  C   UNL     1      18.784  -2.575  -5.905  1.00  0.00     0.026 A 
ATOM     31  C   UNL     1      18.585  -2.276  -3.523  1.00  0.00     0.026 A 
ATOM     32  C   UNL     1      19.437  -3.793  -5.692  1.00  0.00     0.002 A 
ATOM     33  C   UNL     1      19.238  -3.493  -3.311  1.00  0.00     0.002 A 
ATOM     34  C   UNL     1      19.664  -4.252  -4.396  1.00  0.00     0.000 A 
ENDBRANCH  27  29
ENDBRANCH   8  25
ENDBRANCH   3   4
ENDBRANCH   2   3
ENDBRANCH   1   2
BRANCH   1  35
ATOM     35  O   UNL     1      16.134   7.376  -5.640  1.00  0.00    -0.393 OA
ATOM     36  H   UNL     1      16.690   8.165  -5.512  1.00  0.00     0.210 HD
ENDBRANCH   1  35
BRANCH   1  37
ATOM     37  C   UNL     1      14.042   6.849  -4.578  1.00  0.00     0.064 C 
BRANCH  37  38
ATOM     38  C   UNL     1      13.234   8.135  -4.783  1.00  0.00     0.128 C 
BRANCH  38  39
ATOM     39  O   UNL     1      14.065   9.253  -4.470  1.00  0.00    -0.392 OA
ATOM     40  H   UNL     1      13.966   9.890  -5.208  1.00  0.00     0.210 HD
ENDBRANCH  38  39
BRANCH  38  41
ATOM     41  C   UNL     1      12.733   8.240  -6.226  1.00  0.00     0.154 C 
BRANCH  41  42
ATOM     42  C   UNL     1      13.252   9.495  -6.870  1.00  0.00     0.305 C 
ATOM     43  O   UNL     1      12.613  10.514  -7.080  1.00  0.00    -0.252 OA
BRANCH  42  44
ATOM     44  O   UNL     1      14.557   9.412  -7.184  1.00  0.00    -0.481 OA
ATOM     45  H   UNL     1      14.779   8.459  -7.119  1.00  0.00     0.296 HD
ENDBRANCH  42  44
ENDBRANCH  41  42
ENDBRANCH  38  41
ENDBRANCH  37  38
ENDBRANCH   1  37
TORSDOF 15
BEGIN_RES MET A 624
REMARK  4 active torsions:
REMARK  status: ('A' for Active; 'I' for Inactive)
REMARK    1  A    between atoms: CA   and  CB  
REMARK    2  A    between atoms: CB   and  CG  
REMARK    3  A    between atoms: CG   and  SD  
REMARK    4  A    between atoms: SD   and  CE  
ROOT
ATOM      1  CA  MET A 624      14.156  -1.311 -16.529  1.00 37.55     0.090 C 
ENDROOT
BRANCH   1   2
ATOM      2  CB  MET A 624      14.290  -0.416 -17.759  1.00 35.24    -0.030 C 
ATOM      3  HB2 MET A 624      14.990  -0.858 -18.506  1.00  0.00     0.037 H 
ATOM      4  HB1 MET A 624      13.356  -0.422 -18.367  1.00  0.00     0.037 H 
BRANCH   2   5
ATOM      5  CG  MET A 624      14.699   1.001 -17.391  1.00 41.56    -0.021 C 
ATOM      6  HG2 MET A 624      15.746   1.195 -17.721  1.00  0.00     0.049 H 
ATOM      7  HG1 MET A 624      14.821   1.088 -16.286  1.00  0.00     0.049 H 
BRANCH   5   8
ATOM      8  SD  MET A 624      13.613   2.302 -17.994  1.00 46.36    -0.173 SA
BRANCH   8   9
ATOM      9  CE  MET A 624      14.679   3.141 -19.163  1.00 43.21    -0.035 C 
ATOM     10  HE3 MET A 624      14.481   2.911 -20.236  1.00  0.00     0.041 H 
ATOM     11  HE1 MET A 624      15.689   2.848 -18.792  1.00  0.00     0.041 H 
ATOM     12  HE2 MET A 624      14.507   4.238 -19.262  1.00  0.00     0.041 H 
ENDBRANCH   8   9
ENDBRANCH   5   8
ENDBRANCH   2   5
ENDBRANCH   1   2
END_RES MET A 624
BEGIN_RES LEU A 625
REMARK  4 active torsions:
REMARK  status: ('A' for Active; 'I' for Inactive)
REMARK    5  A    between atoms: CA   and  CB  
REMARK    6  A    between atoms: CB   and  CG  
REMARK    7  A    between atoms: CG   and  CD1 
REMARK    8  A    between atoms: CG   and  CD2 
ROOT
ATOM     13  CA  LEU A 625      17.135  -3.624 -16.776  1.00 49.20     0.089 C 
ENDROOT
BRANCH  13  14
ATOM     14  CB  LEU A 625      17.051  -5.150 -16.753  1.00 47.95    -0.035 C 
ATOM     15  HB2 LEU A 625      16.543  -5.506 -17.679  1.00  0.00     0.037 H 
ATOM     16  HB1 LEU A 625      18.070  -5.578 -16.898  1.00  0.00     0.037 H 
BRANCH  14  17
ATOM     17  CG  LEU A 625      16.398  -5.799 -15.537  1.00 41.83    -0.059 C 
ATOM     18  HG  LEU A 625      15.703  -5.064 -15.066  1.00  0.00     0.038 H 
BRANCH  17  19
ATOM     19  CD1 LEU A 625      15.603  -7.004 -15.987  1.00 45.22    -0.073 C 
ATOM     20 3HD1 LEU A 625      14.919  -7.383 -15.190  1.00  0.00     0.028 H 
ATOM     21 2HD1 LEU A 625      14.829  -6.742 -16.746  1.00  0.00     0.028 H 
ATOM     22 1HD1 LEU A 625      16.305  -7.790 -16.351  1.00  0.00     0.028 H 
ENDBRANCH  17  19
BRANCH  17  23
ATOM     23  CD2 LEU A 625      17.455  -6.192 -14.522  1.00 48.58    -0.073 C 
ATOM     24 1HD2 LEU A 625      17.472  -5.461 -13.680  1.00  0.00     0.028 H 
ATOM     25 3HD2 LEU A 625      17.318  -7.238 -14.162  1.00  0.00     0.028 H 
ATOM     26 2HD2 LEU A 625      18.459  -6.310 -14.991  1.00  0.00     0.028 H 
ENDBRANCH  17  23
ENDBRANCH  14  17
ENDBRANCH  13  14
END_RES LEU A 625
BEGIN_RES CYS A 673
REMARK  1 active torsions:
REMARK  status: ('A' for Active; 'I' for Inactive)
REMARK    9  A    between atoms: CA   and  CB  
ROOT
ATOM     27  CA  CYS A 673       6.053  10.339  -6.366  1.00 37.53     0.098 C 
ENDROOT
BRANCH  27  28
ATOM     28  CB  CYS A 673       6.430   9.481  -5.160  1.00 34.59     0.013 C 
ATOM     29  SG  CYS A 673       5.024   8.521  -4.528  1.00 37.22    -0.095 SA
ATOM     30  HB1 CYS A 673       7.297   8.819  -5.393  1.00  0.00     0.053 H 
ATOM     31  HB2 CYS A 673       6.889  10.099  -4.355  1.00  0.00     0.053 H 
ENDBRANCH  27  28
END_RES CYS A 673
ENDMDL
MODEL 3
REMARK VINA RESULT:    -7.707      4.840      8.222
REMARK INTER + INTRA:         -16.490
REMARK INTER:                 -13.211
REMARK INTRA:                  -3.279
REMARK UNBOUND:                -2.700
REMARK SMILES CC(C)c1c(C(=O)Nc2ccccc2)c(-c2ccccc2)c(-c2ccc(F)cc2)n1CC[C@@H](O)C[C@@H](O)CC(=O)O
REMARK SMILES IDX 33 1 32 2 31 3 30 4 22 5 15 6 4 7 5 8 23 9 26 10 25 11 28 12
REMARK SMILES IDX 24 13 29 14 27 15 16 16 17 17 21 18 18 19 20 20 19 21 2 22
REMARK SMILES IDX 1 23 3 24 6 25 7 26 8 27 9 29 10 30 14 31 11 32 13 33 12 34
REMARK SMILES IDX 34 35 35 37 36 38 37 39 38 41 39 42 40 43 41 44
REMARK H PARENT 8 28 34 36 37 40 41 45
ROOT
ATOM      1  C   UNL     1      17.603   1.064  -1.865  1.00  0.00     0.118 C 
ENDROOT
BRANCH   1   2
ATOM      2  C   UNL     1      17.091   2.357  -2.499  1.00  0.00     0.053 C 
BRANCH   2   3
ATOM      3  C   UNL     1      17.955   2.795  -3.685  1.00  0.00     0.125 C 
BRANCH   3   4
ATOM      4  N   UNL     1      17.204   2.717  -4.942  1.00  0.00    -0.343 N 
ATOM      5  C   UNL     1      17.415   1.746  -5.910  1.00  0.00     0.057 A 
ATOM      6  C   UNL     1      16.490   1.970  -6.918  1.00  0.00     0.021 A 
ATOM      7  C   UNL     1      16.175   3.569  -5.323  1.00  0.00     0.034 A 
ATOM      8  C   UNL     1      15.707   3.120  -6.561  1.00  0.00     0.069 A 
BRANCH   5   9
ATOM      9  C   UNL     1      18.478   0.738  -5.840  1.00  0.00    -0.001 A 
ATOM     10  C   UNL     1      20.511  -1.164  -5.724  1.00  0.00     0.123 A 
ATOM     11  C   UNL     1      19.207  -1.537  -5.421  1.00  0.00     0.040 A 
ATOM     12  C   UNL     1      20.816   0.142  -6.090  1.00  0.00     0.040 A 
ATOM     13  C   UNL     1      18.186  -0.585  -5.484  1.00  0.00     0.013 A 
ATOM     14  C   UNL     1      19.799   1.095  -6.149  1.00  0.00     0.013 A 
ATOM     15  F   UNL     1      21.488  -2.077  -5.665  1.00  0.00    -0.207 F 
ENDBRANCH   5   9
BRANCH   6  16
ATOM     16  C   UNL     1      16.419   1.163  -8.131  1.00  0.00    -0.015 A 
ATOM     17  C   UNL     1      15.610   0.022  -8.167  1.00  0.00     0.009 A 
ATOM     18  C   UNL     1      17.197   1.491  -9.250  1.00  0.00     0.009 A 
ATOM     19  C   UNL     1      15.580  -0.781  -9.309  1.00  0.00     0.001 A 
ATOM     20  C   UNL     1      17.161   0.690 -10.392  1.00  0.00     0.001 A 
ATOM     21  C   UNL     1      16.354  -0.446 -10.420  1.00  0.00     0.000 A 
ENDBRANCH   6  16
BRANCH   7  22
ATOM     22  C   UNL     1      15.725   4.734  -4.456  1.00  0.00     0.031 C 
ATOM     23  C   UNL     1      14.238   4.674  -4.102  1.00  0.00     0.014 C 
ATOM     24  C   UNL     1      16.116   6.078  -5.069  1.00  0.00     0.014 C 
ENDBRANCH   7  22
BRANCH   8  25
ATOM     25  C   UNL     1      14.620   3.723  -7.349  1.00  0.00     0.258 C 
ATOM     26  O   UNL     1      14.852   4.546  -8.225  1.00  0.00    -0.269 OA
ATOM     27  N   UNL     1      13.370   3.266  -6.979  1.00  0.00    -0.322 N 
ATOM     28  H   UNL     1      13.353   2.590  -6.226  1.00  0.00     0.170 HD
BRANCH  27  29
ATOM     29  C   UNL     1      12.122   3.587  -7.548  1.00  0.00     0.041 A 
ATOM     30  C   UNL     1      11.610   4.882  -7.632  1.00  0.00     0.026 A 
ATOM     31  C   UNL     1      11.366   2.525  -8.061  1.00  0.00     0.026 A 
ATOM     32  C   UNL     1      10.363   5.113  -8.220  1.00  0.00     0.002 A 
ATOM     33  C   UNL     1      10.120   2.756  -8.649  1.00  0.00     0.002 A 
ATOM     34  C   UNL     1       9.618   4.051  -8.728  1.00  0.00     0.000 A 
ENDBRANCH  27  29
ENDBRANCH   8  25
ENDBRANCH   3   4
ENDBRANCH   2   3
ENDBRANCH   1   2
BRANCH   1  35
ATOM     35  O   UNL     1      16.757  -0.010  -2.284  1.00  0.00    -0.393 OA
ATOM     36  H   UNL     1      16.640   0.073  -3.247  1.00  0.00     0.210 HD
ENDBRANCH   1  35
BRANCH   1  37
ATOM     37  C   UNL     1      19.048   0.720  -2.262  1.00  0.00     0.064 C 
BRANCH  37  38
ATOM     38  C   UNL     1      19.805  -0.150  -1.252  1.00  0.00     0.128 C 
BRANCH  38  39
ATOM     39  O   UNL     1      18.906  -0.531  -0.210  1.00  0.00    -0.392 OA
ATOM     40  H   UNL     1      19.152  -1.443   0.052  1.00  0.00     0.210 HD
ENDBRANCH  38  39
BRANCH  38  41
ATOM     41  C   UNL     1      20.383  -1.395  -1.929  1.00  0.00     0.154 C 
BRANCH  41  42
ATOM     42  C   UNL     1      19.572  -2.609  -1.572  1.00  0.00     0.305 C 
ATOM     43  O   UNL     1      19.886  -3.474  -0.768  1.00  0.00    -0.252 OA
BRANCH  42  44
ATOM     44  O   UNL     1      18.395  -2.653  -2.220  1.00  0.00    -0.481 OA
ATOM     45  H   UNL     1      17.763  -2.178  -1.639  1.00  0.00     0.296 HD
ENDBRANCH  42  44
ENDBRANCH  41  42
ENDBRANCH  38  41
ENDBRANCH  37  38
ENDBRANCH   1  37
TORSDOF 15
BEGIN_RES MET A 624
REMARK  4 active torsions:
REMARK  status: ('A' for Active; 'I' for Inactive)
REMARK    1  A    between atoms: CA   and  CB  
REMARK    2  A    between atoms: CB   and  CG  
REMARK    3  A    between atoms: CG   and  SD  
REMARK    4  A    between atoms: SD   and  CE  
ROOT
ATOM      1  CA  MET A 624      14.156  -1.311 -16.529  1.00 37.55     0.090 C 
ENDROOT
BRANCH   1   2
ATOM      2  CB  MET A 624      14.290  -0.416 -17.759  1.00 35.24    -0.030 C 
ATOM      3  HB2 MET A 624      14.700  -0.982 -18.628  1.00  0.00     0.037 H 
ATOM      4  HB1 MET A 624      13.291  -0.151 -18.176  1.00  0.00     0.037 H 
BRANCH   2   5
ATOM      5  CG  MET A 624      15.116   0.828 -17.472  1.00 41.56    -0.021 C 
ATOM      6  HG2 MET A 624      16.182   0.547 -17.301  1.00  0.00     0.049 H 
ATOM      7  HG1 MET A 624      14.855   1.234 -16.467  1.00  0.00     0.049 H 
BRANCH   5   8
ATOM      8  SD  MET A 624      15.012   2.129 -18.709  1.00 46.36    -0.173 SA
BRANCH   8   9
ATOM      9  CE  MET A 624      13.328   2.696 -18.488  1.00 43.21    -0.035 C 
ATOM     10  HE3 MET A 624      12.646   2.508 -19.350  1.00  0.00     0.041 H 
ATOM     11  HE1 MET A 624      13.488   3.770 -18.233  1.00  0.00     0.041 H 
ATOM     12  HE2 MET A 624      12.723   2.117 -17.752  1.00  0.00     0.041 H 
ENDBRANCH   8   9
ENDBRANCH   5   8
ENDBRANCH   2   5
ENDBRANCH   1   2
END_RES MET A 624
BEGIN_RES LEU A 625
REMARK  4 active torsions:
REMARK  status: ('A' for Active; 'I' for Inactive)
REMARK    5  A    between atoms: CA   and  CB  
REMARK    6  A    between atoms: CB   and  CG  
REMARK    7  A    between atoms: CG   and  CD1 
REMARK    8  A    between atoms: CG   and  CD2 
ROOT
ATOM     13  CA  LEU A 625      17.135  -3.624 -16.776  1.00 49.20     0.089 C 
ENDROOT
BRANCH  13  14
ATOM     14  CB  LEU A 625      17.051  -5.150 -16.753  1.00 47.95    -0.035 C 
ATOM     15  HB2 LEU A 625      16.553  -5.507 -17.685  1.00  0.00     0.037 H 
ATOM     16  HB1 LEU A 625      18.072  -5.578 -16.886  1.00  0.00     0.037 H 
BRANCH  14  17
ATOM     17  CG  LEU A 625      16.385  -5.799 -15.544  1.00 41.83    -0.059 C 
ATOM     18  HG  LEU A 625      15.657  -5.077 -15.104  1.00  0.00     0.038 H 
BRANCH  17  19
ATOM     19  CD1 LEU A 625      15.637  -7.033 -15.994  1.00 45.22    -0.073 C 
ATOM     20 3HD1 LEU A 625      14.531  -6.915 -15.906  1.00  0.00     0.028 H 
ATOM     21 2HD1 LEU A 625      15.691  -7.183 -17.098  1.00  0.00     0.028 H 
ATOM     22 1HD1 LEU A 625      16.016  -7.916 -15.427  1.00  0.00     0.028 H 
ENDBRANCH  17  19
BRANCH  17  23
ATOM     23  CD2 LEU A 625      17.426  -6.144 -14.495  1.00 48.58    -0.073 C 
ATOM     24 1HD2 LEU A 625      18.435  -6.216 -14.963  1.00  0.00     0.028 H 
ATOM     25 3HD2 LEU A 625      17.413  -5.425 -13.642  1.00  0.00     0.028 H 
ATOM     26 2HD2 LEU A 625      17.160  -7.069 -13.934  1.00  0.00     0.028 H 
ENDBRANCH  17  23
ENDBRANCH  14  17
ENDBRANCH  13  14
END_RES LEU A 625
BEGIN_RES CYS A 673
REMARK  1 active torsions:
REMARK  status: ('A' for Active; 'I' for Inactive)
REMARK    9  A    between atoms: CA   and  CB  
ROOT
ATOM     27  CA  CYS A 673       6.053  10.339  -6.366  1.00 37.53     0.098 C 
ENDROOT
BRANCH  27  28
ATOM     28  CB  CYS A 673       6.430   9.481  -5.160  1.00 34.59     0.013 C 
ATOM     29  SG  CYS A 673       5.081   8.378  -4.648  1.00 37.22    -0.095 SA
ATOM     30  HB1 CYS A 673       7.368   8.909  -5.351  1.00  0.00     0.053 H 
ATOM     31  HB2 CYS A 673       6.777  10.113  -4.310  1.00  0.00     0.053 H 
ENDBRANCH  27  28
END_RES CYS A 673
ENDMDL
MODEL 4
REMARK VINA RESULT:    -7.690      3.248      6.225
REMARK INTER + INTRA:         -16.460
REMARK INTER:                 -15.125
REMARK INTRA:                  -1.335
REMARK UNBOUND:                -2.700
REMARK SMILES CC(C)c1c(C(=O)Nc2ccccc2)c(-c2ccccc2)c(-c2ccc(F)cc2)n1CC[C@@H](O)C[C@@H](O)CC(=O)O
REMARK SMILES IDX 33 1 32 2 31 3 30 4 22 5 15 6 4 7 5 8 23 9 26 10 25 11 28 12
REMARK SMILES IDX 24 13 29 14 27 15 16 16 17 17 21 18 18 19 20 20 19 21 2 22
REMARK SMILES IDX 1 23 3 24 6 25 7 26 8 27 9 29 10 30 14 31 11 32 13 33 12 34
REMARK SMILES IDX 34 35 35 37 36 38 37 39 38 41 39 42 40 43 41 44
REMARK H PARENT 8 28 34 36 37 40 41 45
ROOT
ATOM      1  C   UNL     1      16.721  -0.798  -9.148  1.00  0.00     0.118 C 
ENDROOT
BRANCH   1   2
ATOM      2  C   UNL     1      15.547   0.180  -9.138  1.00  0.00     0.053 C 
BRANCH   2   3
ATOM      3  C   UNL     1      14.691   0.035  -7.876  1.00  0.00     0.125 C 
BRANCH   3   4
ATOM      4  N   UNL     1      14.183   1.335  -7.431  1.00  0.00    -0.343 N 
ATOM      5  C   UNL     1      14.940   2.263  -6.730  1.00  0.00     0.057 A 
ATOM      6  C   UNL     1      14.138   3.377  -6.533  1.00  0.00     0.021 A 
ATOM      7  C   UNL     1      12.906   1.828  -7.667  1.00  0.00     0.034 A 
ATOM      8  C   UNL     1      12.852   3.112  -7.115  1.00  0.00     0.069 A 
BRANCH   5   9
ATOM      9  C   UNL     1      16.310   2.018  -6.267  1.00  0.00    -0.001 A 
ATOM     10  C   UNL     1      18.904   1.557  -5.359  1.00  0.00     0.123 A 
ATOM     11  C   UNL     1      18.706   2.051  -6.643  1.00  0.00     0.040 A 
ATOM     12  C   UNL     1      17.828   1.294  -4.518  1.00  0.00     0.040 A 
ATOM     13  C   UNL     1      17.406   2.288  -7.096  1.00  0.00     0.013 A 
ATOM     14  C   UNL     1      16.529   1.525  -4.971  1.00  0.00     0.013 A 
ATOM     15  F   UNL     1      20.150   1.331  -4.925  1.00  0.00    -0.207 F 
ENDBRANCH   5   9
BRANCH   6  16
ATOM     16  C   UNL     1      14.580   4.560  -5.804  1.00  0.00    -0.015 A 
ATOM     17  C   UNL     1      14.018   4.868  -4.561  1.00  0.00     0.009 A 
ATOM     18  C   UNL     1      15.530   5.425  -6.362  1.00  0.00     0.009 A 
ATOM     19  C   UNL     1      14.401   6.027  -3.884  1.00  0.00     0.001 A 
ATOM     20  C   UNL     1      15.916   6.581  -5.682  1.00  0.00     0.001 A 
ATOM     21  C   UNL     1      15.351   6.882  -4.444  1.00  0.00     0.000 A 
ENDBRANCH   6  16
BRANCH   7  22
ATOM     22  C   UNL     1      11.853   1.025  -8.413  1.00  0.00     0.031 C 
ATOM     23  C   UNL     1      10.940   1.897  -9.277  1.00  0.00     0.014 C 
ATOM     24  C   UNL     1      11.059   0.121  -7.471  1.00  0.00     0.014 C 
ENDBRANCH   7  22
BRANCH   8  25
ATOM     25  C   UNL     1      11.689   4.012  -7.124  1.00  0.00     0.258 C 
ATOM     26  O   UNL     1      10.611   3.663  -6.661  1.00  0.00    -0.269 OA
ATOM     27  N   UNL     1      11.960   5.237  -7.705  1.00  0.00    -0.322 N 
ATOM     28  H   UNL     1      12.904   5.361  -8.049  1.00  0.00     0.170 HD
BRANCH  27  29
ATOM     29  C   UNL     1      11.105   6.347  -7.836  1.00  0.00     0.041 A 
ATOM     30  C   UNL     1       9.836   6.293  -8.414  1.00  0.00     0.026 A 
ATOM     31  C   UNL     1      11.573   7.572  -7.343  1.00  0.00     0.026 A 
ATOM     32  C   UNL     1       9.047   7.445  -8.498  1.00  0.00     0.002 A 
ATOM     33  C   UNL     1      10.786   8.723  -7.427  1.00  0.00     0.002 A 
ATOM     34  C   UNL     1       9.522   8.659  -8.005  1.00  0.00     0.000 A 
ENDBRANCH  27  29
ENDBRANCH   8  25
ENDBRANCH   3   4
ENDBRANCH   2   3
ENDBRANCH   1   2
BRANCH   1  35
ATOM     35  O   UNL     1      16.316  -1.997  -8.482  1.00  0.00    -0.393 OA
ATOM     36  H   UNL     1      15.407  -1.855  -8.160  1.00  0.00     0.210 HD
ENDBRANCH   1  35
BRANCH   1  37
ATOM     37  C   UNL     1      17.194  -1.171 -10.562  1.00  0.00     0.064 C 
BRANCH  37  38
ATOM     38  C   UNL     1      16.139  -1.860 -11.435  1.00  0.00     0.128 C 
BRANCH  38  39
ATOM     39  O   UNL     1      15.859  -1.026 -12.560  1.00  0.00    -0.392 OA
ATOM     40  H   UNL     1      16.399  -1.368 -13.303  1.00  0.00     0.210 HD
ENDBRANCH  38  39
BRANCH  38  41
ATOM     41  C   UNL     1      16.631  -3.230 -11.907  1.00  0.00     0.154 C 
BRANCH  41  42
ATOM     42  C   UNL     1      15.477  -4.063 -12.393  1.00  0.00     0.305 C 
ATOM     43  O   UNL     1      15.113  -5.131 -11.927  1.00  0.00    -0.252 OA
BRANCH  42  44
ATOM     44  O   UNL     1      14.823  -3.489 -13.418  1.00  0.00    -0.481 OA
ATOM     45  H   UNL     1      15.419  -3.585 -14.191  1.00  0.00     0.296 HD
ENDBRANCH  42  44
ENDBRANCH  41  42
ENDBRANCH  38  41
ENDBRANCH  37  38
ENDBRANCH   1  37
TORSDOF 15
BEGIN_RES MET A 624
REMARK  4 active torsions:
REMARK  status: ('A' for Active; 'I' for Inactive)
REMARK    1  A    between atoms: CA   and  CB  
REMARK    2  A    between atoms: CB   and  CG  
REMARK    3  A    between atoms: CG   and  SD  
REMARK    4  A    between atoms: SD   and  CE  
ROOT
ATOM      1  CA  MET A 624      14.156  -1.311 -16.529  1.00 37.55     0.090 C 
ENDROOT
BRANCH   1   2
ATOM      2  CB  MET A 624      14.290  -0.416 -17.759  1.00 35.24    -0.030 C 
ATOM      3  HB2 MET A 624      14.701  -0.981 -18.628  1.00  0.00     0.037 H 
ATOM      4  HB1 MET A 624      13.291  -0.152 -18.177  1.00  0.00     0.037 H 
BRANCH   2   5
ATOM      5  CG  MET A 624      15.114   0.829 -17.471  1.00 41.56    -0.021 C 
ATOM      6  HG2 MET A 624      16.180   0.549 -17.299  1.00  0.00     0.049 H 
ATOM      7  HG1 MET A 624      14.852   1.235 -16.467  1.00  0.00     0.049 H 
BRANCH   5   8
ATOM      8  SD  MET A 624      15.011   2.130 -18.708  1.00 46.36    -0.173 SA
BRANCH   8   9
ATOM      9  CE  MET A 624      13.328   2.699 -18.486  1.00 43.21    -0.035 C 
ATOM     10  HE3 MET A 624      13.078   3.057 -17.460  1.00  0.00     0.041 H 
ATOM     11  HE1 MET A 624      12.746   1.814 -18.835  1.00  0.00     0.041 H 
ATOM     12  HE2 MET A 624      13.079   3.661 -18.992  1.00  0.00     0.041 H 
ENDBRANCH   8   9
ENDBRANCH   5   8
ENDBRANCH   2   5
ENDBRANCH   1   2
END_RES MET A 624
BEGIN_RES LEU A 625
REMARK  4 active torsions:
REMARK  status: ('A' for Active; 'I' for Inactive)
REMARK    5  A    between atoms: CA   and  CB  
REMARK    6  A    between atoms: CB   and  CG  
REMARK    7  A    between atoms: CG   and  CD1 
REMARK    8  A    between atoms: CG   and  CD2 
ROOT
ATOM     13  CA  LEU A 625      17.135  -3.624 -16.776  1.00 49.20     0.089 C 
ENDROOT
BRANCH  13  14
ATOM     14  CB  LEU A 625      17.051  -5.150 -16.753  1.00 47.95    -0.035 C 
ATOM     15  HB2 LEU A 625      16.503  -5.503 -17.658  1.00  0.00     0.037 H 
ATOM     16  HB1 LEU A 625      18.063  -5.578 -16.942  1.00  0.00     0.037 H 
BRANCH  14  17
ATOM     17  CG  LEU A 625      16.450  -5.802 -15.512  1.00 41.83    -0.059 C 
ATOM     18  HG  LEU A 625      15.800  -5.058 -14.993  1.00  0.00     0.038 H 
BRANCH  17  19
ATOM     19  CD1 LEU A 625      15.602  -6.981 -15.933  1.00 45.22    -0.073 C 
ATOM     20 3HD1 LEU A 625      14.896  -6.722 -16.757  1.00  0.00     0.028 H 
ATOM     21 2HD1 LEU A 625      16.194  -7.757 -16.472  1.00  0.00     0.028 H 
ATOM     22 1HD1 LEU A 625      15.079  -7.392 -15.038  1.00  0.00     0.028 H 
ENDBRANCH  17  19
BRANCH  17  23
ATOM     23  CD2 LEU A 625      17.552  -6.234 -14.562  1.00 48.58    -0.073 C 
ATOM     24 1HD2 LEU A 625      17.377  -5.804 -13.548  1.00  0.00     0.028 H 
ATOM     25 3HD2 LEU A 625      17.663  -7.344 -14.531  1.00  0.00     0.028 H 
ATOM     26 2HD2 LEU A 625      18.564  -5.980 -14.954  1.00  0.00     0.028 H 
ENDBRANCH  17  23
ENDBRANCH  14  17
ENDBRANCH  13  14
END_RES LEU A 625
BEGIN_RES CYS A 673
REMARK  1 active torsions:
REMARK  status: ('A' for Active; 'I' for Inactive)
REMARK    9  A    between atoms: CA   and  CB  
ROOT
ATOM     27  CA  CYS A 673       6.053  10.339  -6.366  1.00 37.53     0.098 C 
ENDROOT
BRANCH  27  28
ATOM     28  CB  CYS A 673       6.430   9.481  -5.160  1.00 34.59     0.013 C 
ATOM     29  SG  CYS A 673       5.020   8.532  -4.519  1.00 37.22    -0.095 SA
ATOM     30  HB1 CYS A 673       7.291   8.813  -5.396  1.00  0.00     0.053 H 
ATOM     31  HB2 CYS A 673       6.898  10.098  -4.358  1.00  0.00     0.053 H 
ENDBRANCH  27  28
END_RES CYS A 673
ENDMDL
MODEL 5
REMARK VINA RESULT:    -7.602      8.020     12.314
REMARK INTER + INTRA:         -16.303
REMARK INTER:                 -13.071
REMARK INTRA:                  -3.232
REMARK UNBOUND:                -2.700
REMARK SMILES CC(C)c1c(C(=O)Nc2ccccc2)c(-c2ccccc2)c(-c2ccc(F)cc2)n1CC[C@@H](O)C[C@@H](O)CC(=O)O
REMARK SMILES IDX 33 1 32 2 31 3 30 4 22 5 15 6 4 7 5 8 23 9 26 10 25 11 28 12
REMARK SMILES IDX 24 13 29 14 27 15 16 16 17 17 21 18 18 19 20 20 19 21 2 22
REMARK SMILES IDX 1 23 3 24 6 25 7 26 8 27 9 29 10 30 14 31 11 32 13 33 12 34
REMARK SMILES IDX 34 35 35 37 36 38 37 39 38 41 39 42 40 43 41 44
REMARK H PARENT 8 28 34 36 37 40 41 45
ROOT
ATOM      1  C   UNL     1      19.843  -6.054  -3.287  1.00  0.00     0.118 C 
ENDROOT
BRANCH   1   2
ATOM      2  C   UNL     1      19.279  -6.968  -4.374  1.00  0.00     0.053 C 
BRANCH   2   3
ATOM      3  C   UNL     1      20.176  -7.006  -5.614  1.00  0.00     0.125 C 
BRANCH   3   4
ATOM      4  N   UNL     1      19.575  -6.261  -6.724  1.00  0.00    -0.343 N 
ATOM      5  C   UNL     1      18.562  -6.757  -7.531  1.00  0.00     0.057 A 
ATOM      6  C   UNL     1      18.226  -5.752  -8.426  1.00  0.00     0.021 A 
ATOM      7  C   UNL     1      19.907  -4.965  -7.101  1.00  0.00     0.034 A 
ATOM      8  C   UNL     1      19.071  -4.620  -8.167  1.00  0.00     0.069 A 
BRANCH   5   9
ATOM      9  C   UNL     1      18.035  -8.122  -7.435  1.00  0.00    -0.001 A 
ATOM     10  C   UNL     1      17.016 -10.708  -7.233  1.00  0.00     0.123 A 
ATOM     11  C   UNL     1      18.313 -10.518  -7.693  1.00  0.00     0.040 A 
ATOM     12  C   UNL     1      16.220  -9.628  -6.866  1.00  0.00     0.040 A 
ATOM     13  C   UNL     1      18.826  -9.222  -7.789  1.00  0.00     0.013 A 
ATOM     14  C   UNL     1      16.729  -8.333  -6.967  1.00  0.00     0.013 A 
ATOM     15  F   UNL     1      16.525 -11.950  -7.139  1.00  0.00    -0.207 F 
ENDBRANCH   5   9
BRANCH   6  16
ATOM     16  C   UNL     1      17.211  -5.912  -9.460  1.00  0.00    -0.015 A 
ATOM     17  C   UNL     1      15.953  -5.321  -9.305  1.00  0.00     0.009 A 
ATOM     18  C   UNL     1      17.467  -6.697 -10.593  1.00  0.00     0.009 A 
ATOM     19  C   UNL     1      14.962  -5.514 -10.269  1.00  0.00     0.001 A 
ATOM     20  C   UNL     1      16.477  -6.884 -11.558  1.00  0.00     0.001 A 
ATOM     21  C   UNL     1      15.224  -6.294 -11.395  1.00  0.00     0.000 A 
ENDBRANCH   6  16
BRANCH   7  22
ATOM     22  C   UNL     1      20.991  -4.168  -6.393  1.00  0.00     0.031 C 
ATOM     23  C   UNL     1      20.574  -2.726  -6.097  1.00  0.00     0.014 C 
ATOM     24  C   UNL     1      22.322  -4.240  -7.139  1.00  0.00     0.014 C 
ENDBRANCH   7  22
BRANCH   8  25
ATOM     25  C   UNL     1      19.070  -3.339  -8.890  1.00  0.00     0.258 C 
ATOM     26  O   UNL     1      19.887  -3.106  -9.771  1.00  0.00    -0.269 OA
ATOM     27  N   UNL     1      18.081  -2.477  -8.456  1.00  0.00    -0.322 N 
ATOM     28  H   UNL     1      17.493  -2.822  -7.707  1.00  0.00     0.170 HD
BRANCH  27  29
ATOM     29  C   UNL     1      17.759  -1.200  -8.953  1.00  0.00     0.041 A 
ATOM     30  C   UNL     1      18.364  -0.018  -8.523  1.00  0.00     0.026 A 
ATOM     31  C   UNL     1      16.773  -1.134  -9.946  1.00  0.00     0.026 A 
ATOM     32  C   UNL     1      17.989   1.211  -9.077  1.00  0.00     0.002 A 
ATOM     33  C   UNL     1      16.398   0.093 -10.498  1.00  0.00     0.002 A 
ATOM     34  C   UNL     1      17.007   1.266 -10.063  1.00  0.00     0.000 A 
ENDBRANCH  27  29
ENDBRANCH   8  25
ENDBRANCH   3   4
ENDBRANCH   2   3
ENDBRANCH   1   2
BRANCH   1  35
ATOM     35  O   UNL     1      21.266  -6.021  -3.421  1.00  0.00    -0.393 OA
ATOM     36  H   UNL     1      21.596  -5.321  -2.829  1.00  0.00     0.210 HD
ENDBRANCH   1  35
BRANCH   1  37
ATOM     37  C   UNL     1      19.318  -4.612  -3.368  1.00  0.00     0.064 C 
BRANCH  37  38
ATOM     38  C   UNL     1      17.799  -4.486  -3.527  1.00  0.00     0.128 C 
BRANCH  38  39
ATOM     39  O   UNL     1      17.245  -4.032  -2.292  1.00  0.00    -0.392 OA
ATOM     40  H   UNL     1      18.001  -3.859  -1.693  1.00  0.00     0.210 HD
ENDBRANCH  38  39
BRANCH  38  41
ATOM     41  C   UNL     1      17.447  -3.508  -4.651  1.00  0.00     0.154 C 
BRANCH  41  42
ATOM     42  C   UNL     1      16.418  -4.110  -5.566  1.00  0.00     0.305 C 
ATOM     43  O   UNL     1      16.013  -5.261  -5.537  1.00  0.00    -0.252 OA
BRANCH  42  44
ATOM     44  O   UNL     1      15.928  -3.220  -6.448  1.00  0.00    -0.481 OA
ATOM     45  H   UNL     1      15.327  -3.735  -7.028  1.00  0.00     0.296 HD
ENDBRANCH  42  44
ENDBRANCH  41  42
ENDBRANCH  38  41
ENDBRANCH  37  38
ENDBRANCH   1  37
TORSDOF 15
BEGIN_RES MET A 624
REMARK  4 active torsions:
REMARK  status: ('A' for Active; 'I' for Inactive)
REMARK    1  A    between atoms: CA   and  CB  
REMARK    2  A    between atoms: CB   and  CG  
REMARK    3  A    between atoms: CG   and  SD  
REMARK    4  A    between atoms: SD   and  CE  
ROOT
ATOM      1  CA  MET A 624      14.156  -1.311 -16.529  1.00 37.55     0.090 C 
ENDROOT
BRANCH   1   2
ATOM      2  CB  MET A 624      14.290  -0.416 -17.759  1.00 35.24    -0.030 C 
ATOM      3  HB2 MET A 624      14.921  -0.897 -18.543  1.00  0.00     0.037 H 
ATOM      4  HB1 MET A 624      13.329  -0.354 -18.320  1.00  0.00     0.037 H 
BRANCH   2   5
ATOM      5  CG  MET A 624      14.812   0.967 -17.403  1.00 41.56    -0.021 C 
ATOM      6  HG2 MET A 624      15.698   0.880 -16.731  1.00  0.00     0.049 H 
ATOM      7  HG1 MET A 624      14.096   1.481 -16.721  1.00  0.00     0.049 H 
BRANCH   5   8
ATOM      8  SD  MET A 624      15.202   2.031 -18.800  1.00 46.36    -0.173 SA
BRANCH   8   9
ATOM      9  CE  MET A 624      13.798   3.143 -18.803  1.00 43.21    -0.035 C 
ATOM     10  HE3 MET A 624      12.833   2.691 -18.476  1.00  0.00     0.041 H 
ATOM     11  HE1 MET A 624      13.815   3.519 -19.853  1.00  0.00     0.041 H 
ATOM     12  HE2 MET A 624      13.813   3.931 -18.014  1.00  0.00     0.041 H 
ENDBRANCH   8   9
ENDBRANCH   5   8
ENDBRANCH   2   5
ENDBRANCH   1   2
END_RES MET A 624
BEGIN_RES LEU A 625
REMARK  4 active torsions:
REMARK  status: ('A' for Active; 'I' for Inactive)
REMARK    5  A    between atoms: CA   and  CB  
REMARK    6  A    between atoms: CB   and  CG  
REMARK    7  A    between atoms: CG   and  CD1 
REMARK    8  A    between atoms: CG   and  CD2 
ROOT
ATOM     13  CA  LEU A 625      17.135  -3.624 -16.776  1.00 49.20     0.089 C 
ENDROOT
BRANCH  13  14
ATOM     14  CB  LEU A 625      17.051  -5.150 -16.753  1.00 47.95    -0.035 C 
ATOM     15  HB2 LEU A 625      16.412  -5.497 -17.598  1.00  0.00     0.037 H 
ATOM     16  HB1 LEU A 625      18.037  -5.578 -17.048  1.00  0.00     0.037 H 
BRANCH  14  17
ATOM     17  CG  LEU A 625      16.581  -5.808 -15.460  1.00 41.83    -0.059 C 
ATOM     18  HG  LEU A 625      16.006  -5.060 -14.864  1.00  0.00     0.038 H 
BRANCH  17  19
ATOM     19  CD1 LEU A 625      15.670  -6.968 -15.797  1.00 45.22    -0.073 C 
ATOM     20 3HD1 LEU A 625      15.117  -7.346 -14.906  1.00  0.00     0.028 H 
ATOM     21 2HD1 LEU A 625      14.790  -6.652 -16.406  1.00  0.00     0.028 H 
ATOM     22 1HD1 LEU A 625      16.267  -7.766 -16.297  1.00  0.00     0.028 H 
ENDBRANCH  17  19
BRANCH  17  23
ATOM     23  CD2 LEU A 625      17.773  -6.271 -14.644  1.00 48.58    -0.073 C 
ATOM     24 1HD2 LEU A 625      17.738  -7.377 -14.504  1.00  0.00     0.028 H 
ATOM     25 3HD2 LEU A 625      18.739  -5.939 -15.092  1.00  0.00     0.028 H 
ATOM     26 2HD2 LEU A 625      17.848  -5.730 -13.672  1.00  0.00     0.028 H 
ENDBRANCH  17  23
ENDBRANCH  14  17
ENDBRANCH  13  14
END_RES LEU A 625
BEGIN_RES CYS A 673
REMARK  1 active torsions:
REMARK  status: ('A' for Active; 'I' for Inactive)
REMARK    9  A    between atoms: CA   and  CB  
ROOT
ATOM     27  CA  CYS A 673       6.053  10.339  -6.366  1.00 37.53     0.098 C 
ENDROOT
BRANCH  27  28
ATOM     28  CB  CYS A 673       6.430   9.481  -5.160  1.00 34.59     0.013 C 
ATOM     29  SG  CYS A 673       5.025   8.518  -4.530  1.00 37.22    -0.095 SA
ATOM     30  HB1 CYS A 673       7.298   8.821  -5.392  1.00  0.00     0.053 H 
ATOM     31  HB2 CYS A 673       6.887  10.100  -4.354  1.00  0.00     0.053 H 
ENDBRANCH  27  28
END_RES CYS A 673
ENDMDL
MODEL 6
REMARK VINA RESULT:    -7.489      7.038     13.034
REMARK INTER + INTRA:         -16.100
REMARK INTER:                 -13.435
REMARK INTRA:                  -2.665
REMARK UNBOUND:                -2.700
REMARK SMILES CC(C)c1c(C(=O)Nc2ccccc2)c(-c2ccccc2)c(-c2ccc(F)cc2)n1CC[C@@H](O)C[C@@H](O)CC(=O)O
REMARK SMILES IDX 33 1 32 2 31 3 30 4 22 5 15 6 4 7 5 8 23 9 26 10 25 11 28 12
REMARK SMILES IDX 24 13 29 14 27 15 16 16 17 17 21 18 18 19 20 20 19 21 2 22
REMARK SMILES IDX 1 23 3 24 6 25 7 26 8 27 9 29 10 30 14 31 11 32 13 33 12 34
REMARK SMILES IDX 34 35 35 37 36 38 37 39 38 41 39 42 40 43 41 44
REMARK H PARENT 8 28 34 36 37 40 41 45
ROOT
ATOM      1  C   UNL     1      16.881  -1.326 -11.341  1.00  0.00     0.118 C 
ENDROOT
BRANCH   1   2
ATOM      2  C   UNL     1      17.076  -2.791 -10.950  1.00  0.00     0.053 C 
BRANCH   2   3
ATOM      3  C   UNL     1      16.184  -3.193  -9.772  1.00  0.00     0.125 C 
BRANCH   3   4
ATOM      4  N   UNL     1      16.706  -4.386  -9.098  1.00  0.00    -0.343 N 
ATOM      5  C   UNL     1      17.562  -4.346  -8.007  1.00  0.00     0.057 A 
ATOM      6  C   UNL     1      17.792  -5.659  -7.623  1.00  0.00     0.021 A 
ATOM      7  C   UNL     1      16.401  -5.700  -9.431  1.00  0.00     0.034 A 
ATOM      8  C   UNL     1      17.069  -6.520  -8.516  1.00  0.00     0.069 A 
BRANCH   5   9
ATOM      9  C   UNL     1      18.126  -3.111  -7.455  1.00  0.00    -0.001 A 
ATOM     10  C   UNL     1      19.222  -0.771  -6.410  1.00  0.00     0.123 A 
ATOM     11  C   UNL     1      18.006  -1.234  -5.922  1.00  0.00     0.040 A 
ATOM     12  C   UNL     1      19.904  -1.460  -7.407  1.00  0.00     0.040 A 
ATOM     13  C   UNL     1      17.459  -2.410  -6.441  1.00  0.00     0.013 A 
ATOM     14  C   UNL     1      19.356  -2.632  -7.931  1.00  0.00     0.013 A 
ATOM     15  F   UNL     1      19.747   0.355  -5.911  1.00  0.00    -0.207 F 
ENDBRANCH   5   9
BRANCH   6  16
ATOM     16  C   UNL     1      18.672  -6.025  -6.520  1.00  0.00    -0.015 A 
ATOM     17  C   UNL     1      18.173  -6.085  -5.215  1.00  0.00     0.009 A 
ATOM     18  C   UNL     1      20.033  -6.271  -6.748  1.00  0.00     0.009 A 
ATOM     19  C   UNL     1      19.024  -6.385  -4.150  1.00  0.00     0.001 A 
ATOM     20  C   UNL     1      20.881  -6.577  -5.682  1.00  0.00     0.001 A 
ATOM     21  C   UNL     1      20.376  -6.632  -4.384  1.00  0.00     0.000 A 
ENDBRANCH   6  16
BRANCH   7  22
ATOM     22  C   UNL     1      15.484  -6.050 -10.591  1.00  0.00     0.031 C 
ATOM     23  C   UNL     1      14.103  -6.526 -10.137  1.00  0.00     0.014 C 
ATOM     24  C   UNL     1      16.144  -7.036 -11.555  1.00  0.00     0.014 C 
ENDBRANCH   7  22
BRANCH   8  25
ATOM     25  C   UNL     1      17.039  -7.991  -8.488  1.00  0.00     0.258 C 
ATOM     26  O   UNL     1      16.025  -8.600  -8.174  1.00  0.00    -0.269 OA
ATOM     27  N   UNL     1      18.250  -8.561  -8.834  1.00  0.00    -0.322 N 
ATOM     28  H   UNL     1      18.994  -7.912  -9.056  1.00  0.00     0.170 HD
BRANCH  27  29
ATOM     29  C   UNL     1      18.565  -9.927  -8.960  1.00  0.00     0.041 A 
ATOM     30  C   UNL     1      18.661 -10.811  -7.885  1.00  0.00     0.026 A 
ATOM     31  C   UNL     1      18.785 -10.411 -10.256  1.00  0.00     0.026 A 
ATOM     32  C   UNL     1      18.972 -12.157  -8.100  1.00  0.00     0.002 A 
ATOM     33  C   UNL     1      19.096 -11.756 -10.472  1.00  0.00     0.002 A 
ATOM     34  C   UNL     1      19.189 -12.629  -9.393  1.00  0.00     0.000 A 
ENDBRANCH  27  29
ENDBRANCH   8  25
ENDBRANCH   3   4
ENDBRANCH   2   3
ENDBRANCH   1   2
BRANCH   1  35
ATOM     35  O   UNL     1      15.989  -1.273 -12.458  1.00  0.00    -0.393 OA
ATOM     36  H   UNL     1      15.194  -1.781 -12.217  1.00  0.00     0.210 HD
ENDBRANCH   1  35
BRANCH   1  37
ATOM     37  C   UNL     1      16.290  -0.466 -10.213  1.00  0.00     0.064 C 
BRANCH  37  38
ATOM     38  C   UNL     1      17.323   0.291  -9.370  1.00  0.00     0.128 C 
BRANCH  38  39
ATOM     39  O   UNL     1      18.513   0.454 -10.141  1.00  0.00    -0.392 OA
ATOM     40  H   UNL     1      18.263   0.969 -10.936  1.00  0.00     0.210 HD
ENDBRANCH  38  39
BRANCH  38  41
ATOM     41  C   UNL     1      16.783   1.658  -8.943  1.00  0.00     0.154 C 
BRANCH  41  42
ATOM     42  C   UNL     1      17.460   2.119  -7.682  1.00  0.00     0.305 C 
ATOM     43  O   UNL     1      16.944   2.209  -6.579  1.00  0.00    -0.252 OA
BRANCH  42  44
ATOM     44  O   UNL     1      18.759   2.409  -7.872  1.00  0.00    -0.481 OA
ATOM     45  H   UNL     1      19.188   1.551  -8.082  1.00  0.00     0.296 HD
ENDBRANCH  42  44
ENDBRANCH  41  42
ENDBRANCH  38  41
ENDBRANCH  37  38
ENDBRANCH   1  37
TORSDOF 15
BEGIN_RES MET A 624
REMARK  4 active torsions:
REMARK  status: ('A' for Active; 'I' for Inactive)
REMARK    1  A    between atoms: CA   and  CB  
REMARK    2  A    between atoms: CB   and  CG  
REMARK    3  A    between atoms: CG   and  SD  
REMARK    4  A    between atoms: SD   and  CE  
ROOT
ATOM      1  CA  MET A 624      14.156  -1.311 -16.529  1.00 37.55     0.090 C 
ENDROOT
BRANCH   1   2
ATOM      2  CB  MET A 624      14.290  -0.416 -17.759  1.00 35.24    -0.030 C 
ATOM      3  HB2 MET A 624      14.726  -0.974 -18.620  1.00  0.00     0.037 H 
ATOM      4  HB1 MET A 624      13.293  -0.174 -18.193  1.00  0.00     0.037 H 
BRANCH   2   5
ATOM      5  CG  MET A 624      15.083   0.846 -17.462  1.00 41.56    -0.021 C 
ATOM      6  HG2 MET A 624      16.172   0.658 -17.615  1.00  0.00     0.049 H 
ATOM      7  HG1 MET A 624      15.072   1.055 -16.367  1.00  0.00     0.049 H 
BRANCH   5   8
ATOM      8  SD  MET A 624      14.578   2.312 -18.373  1.00 46.36    -0.173 SA
BRANCH   8   9
ATOM      9  CE  MET A 624      14.804   1.774 -20.066  1.00 43.21    -0.035 C 
ATOM     10  HE3 MET A 624      14.153   0.928 -20.387  1.00  0.00     0.041 H 
ATOM     11  HE1 MET A 624      15.900   1.567 -20.088  1.00  0.00     0.041 H 
ATOM     12  HE2 MET A 624      14.438   2.484 -20.844  1.00  0.00     0.041 H 
ENDBRANCH   8   9
ENDBRANCH   5   8
ENDBRANCH   2   5
ENDBRANCH   1   2
END_RES MET A 624
BEGIN_RES LEU A 625
REMARK  4 active torsions:
REMARK  status: ('A' for Active; 'I' for Inactive)
REMARK    5  A    between atoms: CA   and  CB  
REMARK    6  A    between atoms: CB   and  CG  
REMARK    7  A    between atoms: CG   and  CD1 
REMARK    8  A    between atoms: CG   and  CD2 
ROOT
ATOM     13  CA  LEU A 625      17.135  -3.624 -16.776  1.00 49.20     0.089 C 
ENDROOT
BRANCH  13  14
ATOM     14  CB  LEU A 625      17.051  -5.150 -16.753  1.00 47.95    -0.035 C 
ATOM     15  HB2 LEU A 625      16.434  -5.499 -17.613  1.00  0.00     0.037 H 
ATOM     16  HB1 LEU A 625      18.044  -5.578 -17.023  1.00  0.00     0.037 H 
BRANCH  14  17
ATOM     17  CG  LEU A 625      16.549  -5.806 -15.471  1.00 41.83    -0.059 C 
ATOM     18  HG  LEU A 625      15.919  -5.073 -14.914  1.00  0.00     0.038 H 
BRANCH  17  19
ATOM     19  CD1 LEU A 625      15.700  -7.006 -15.829  1.00 45.22    -0.073 C 
ATOM     20 3HD1 LEU A 625      14.768  -7.064 -15.218  1.00  0.00     0.028 H 
ATOM     21 2HD1 LEU A 625      15.223  -6.903 -16.833  1.00  0.00     0.028 H 
ATOM     22 1HD1 LEU A 625      16.320  -7.929 -15.747  1.00  0.00     0.028 H 
ENDBRANCH  17  19
BRANCH  17  23
ATOM     23  CD2 LEU A 625      17.720  -6.210 -14.595  1.00 48.58    -0.073 C 
ATOM     24 1HD2 LEU A 625      17.802  -7.321 -14.549  1.00  0.00     0.028 H 
ATOM     25 3HD2 LEU A 625      18.672  -5.735 -14.929  1.00  0.00     0.028 H 
ATOM     26 2HD2 LEU A 625      17.657  -5.755 -13.580  1.00  0.00     0.028 H 
ENDBRANCH  17  23
ENDBRANCH  14  17
ENDBRANCH  13  14
END_RES LEU A 625
BEGIN_RES CYS A 673
REMARK  1 active torsions:
REMARK  status: ('A' for Active; 'I' for Inactive)
REMARK    9  A    between atoms: CA   and  CB  
ROOT
ATOM     27  CA  CYS A 673       6.053  10.339  -6.366  1.00 37.53     0.098 C 
ENDROOT
BRANCH  27  28
ATOM     28  CB  CYS A 673       6.430   9.481  -5.160  1.00 34.59     0.013 C 
ATOM     29  SG  CYS A 673       5.029   8.505  -4.541  1.00 37.22    -0.095 SA
ATOM     30  HB1 CYS A 673       7.305   8.829  -5.389  1.00  0.00     0.053 H 
ATOM     31  HB2 CYS A 673       6.877  10.101  -4.349  1.00  0.00     0.053 H 
ENDBRANCH  27  28
END_RES CYS A 673
ENDMDL
MODEL 7
REMARK VINA RESULT:    -7.465      2.031      3.515
REMARK INTER + INTRA:         -16.057
REMARK INTER:                 -13.828
REMARK INTRA:                  -2.228
REMARK UNBOUND:                -2.700
REMARK SMILES CC(C)c1c(C(=O)Nc2ccccc2)c(-c2ccccc2)c(-c2ccc(F)cc2)n1CC[C@@H](O)C[C@@H](O)CC(=O)O
REMARK SMILES IDX 33 1 32 2 31 3 30 4 22 5 15 6 4 7 5 8 23 9 26 10 25 11 28 12
REMARK SMILES IDX 24 13 29 14 27 15 16 16 17 17 21 18 18 19 20 20 19 21 2 22
REMARK SMILES IDX 1 23 3 24 6 25 7 26 8 27 9 29 10 30 14 31 11 32 13 33 12 34
REMARK SMILES IDX 34 35 35 37 36 38 37 39 38 41 39 42 40 43 41 44
REMARK H PARENT 8 28 34 36 37 40 41 45
ROOT
ATOM      1  C   UNL     1      12.191   1.468  -7.499  1.00  0.00     0.118 C 
ENDROOT
BRANCH   1   2
ATOM      2  C   UNL     1      13.282   1.933  -6.535  1.00  0.00     0.053 C 
BRANCH   2   3
ATOM      3  C   UNL     1      14.368   2.746  -7.246  1.00  0.00     0.125 C 
BRANCH   3   4
ATOM      4  N   UNL     1      14.582   4.035  -6.583  1.00  0.00    -0.343 N 
ATOM      5  C   UNL     1      15.694   4.333  -5.809  1.00  0.00     0.057 A 
ATOM      6  C   UNL     1      15.562   5.651  -5.398  1.00  0.00     0.021 A 
ATOM      7  C   UNL     1      13.732   5.132  -6.657  1.00  0.00     0.034 A 
ATOM      8  C   UNL     1      14.327   6.163  -5.923  1.00  0.00     0.069 A 
BRANCH   5   9
ATOM      9  C   UNL     1      16.744   3.364  -5.480  1.00  0.00    -0.001 A 
ATOM     10  C   UNL     1      18.748   1.522  -4.881  1.00  0.00     0.123 A 
ATOM     11  C   UNL     1      17.604   1.569  -4.093  1.00  0.00     0.040 A 
ATOM     12  C   UNL     1      18.906   2.376  -5.967  1.00  0.00     0.040 A 
ATOM     13  C   UNL     1      16.597   2.488  -4.397  1.00  0.00     0.013 A 
ATOM     14  C   UNL     1      17.903   3.298  -6.268  1.00  0.00     0.013 A 
ATOM     15  F   UNL     1      19.713   0.640  -4.591  1.00  0.00    -0.207 F 
ENDBRANCH   5   9
BRANCH   6  16
ATOM     16  C   UNL     1      16.531   6.319  -4.537  1.00  0.00    -0.015 A 
ATOM     17  C   UNL     1      16.424   6.212  -3.147  1.00  0.00     0.009 A 
ATOM     18  C   UNL     1      17.544   7.113  -5.090  1.00  0.00     0.009 A 
ATOM     19  C   UNL     1      17.319   6.893  -2.319  1.00  0.00     0.001 A 
ATOM     20  C   UNL     1      18.441   7.788  -4.261  1.00  0.00     0.001 A 
ATOM     21  C   UNL     1      18.327   7.679  -2.876  1.00  0.00     0.000 A 
ENDBRANCH   6  16
BRANCH   7  22
ATOM     22  C   UNL     1      12.429   5.096  -7.439  1.00  0.00     0.031 C 
ATOM     23  C   UNL     1      12.441   6.016  -8.661  1.00  0.00     0.014 C 
ATOM     24  C   UNL     1      11.223   5.355  -6.537  1.00  0.00     0.014 C 
ENDBRANCH   7  22
BRANCH   8  25
ATOM     25  C   UNL     1      13.780   7.513  -5.722  1.00  0.00     0.258 C 
ATOM     26  O   UNL     1      13.424   7.897  -4.616  1.00  0.00    -0.269 OA
ATOM     27  N   UNL     1      13.715   8.247  -6.891  1.00  0.00    -0.322 N 
ATOM     28  H   UNL     1      14.041   7.776  -7.725  1.00  0.00     0.170 HD
BRANCH  27  29
ATOM     29  C   UNL     1      13.297   9.581  -7.060  1.00  0.00     0.041 A 
ATOM     30  C   UNL     1      14.150  10.683  -6.989  1.00  0.00     0.026 A 
ATOM     31  C   UNL     1      11.937   9.792  -7.321  1.00  0.00     0.026 A 
ATOM     32  C   UNL     1      13.652  11.976  -7.177  1.00  0.00     0.002 A 
ATOM     33  C   UNL     1      11.439  11.085  -7.509  1.00  0.00     0.002 A 
ATOM     34  C   UNL     1      12.298  12.177  -7.437  1.00  0.00     0.000 A 
ENDBRANCH  27  29
ENDBRANCH   8  25
ENDBRANCH   3   4
ENDBRANCH   2   3
ENDBRANCH   1   2
BRANCH   1  35
ATOM     35  O   UNL     1      12.196   0.038  -7.529  1.00  0.00    -0.393 OA
ATOM     36  H   UNL     1      13.068  -0.254  -7.208  1.00  0.00     0.210 HD
ENDBRANCH   1  35
BRANCH   1  37
ATOM     37  C   UNL     1      10.783   1.936  -7.099  1.00  0.00     0.064 C 
BRANCH  37  38
ATOM     38  C   UNL     1       9.755   1.937  -8.236  1.00  0.00     0.128 C 
BRANCH  38  39
ATOM     39  O   UNL     1      10.392   1.478  -9.429  1.00  0.00    -0.392 OA
ATOM     40  H   UNL     1       9.679   1.165 -10.024  1.00  0.00     0.210 HD
ENDBRANCH  38  39
BRANCH  38  41
ATOM     41  C   UNL     1       8.565   1.036  -7.897  1.00  0.00     0.154 C 
BRANCH  41  42
ATOM     42  C   UNL     1       8.876  -0.394  -8.241  1.00  0.00     0.305 C 
ATOM     43  O   UNL     1       8.850  -0.888  -9.357  1.00  0.00    -0.252 OA
BRANCH  42  44
ATOM     44  O   UNL     1       9.235  -1.117  -7.165  1.00  0.00    -0.481 OA
ATOM     45  H   UNL     1       8.768  -0.703  -6.408  1.00  0.00     0.296 HD
ENDBRANCH  42  44
ENDBRANCH  41  42
ENDBRANCH  38  41
ENDBRANCH  37  38
ENDBRANCH   1  37
TORSDOF 15
BEGIN_RES MET A 624
REMARK  4 active torsions:
REMARK  status: ('A' for Active; 'I' for Inactive)
REMARK    1  A    between atoms: CA   and  CB  
REMARK    2  A    between atoms: CB   and  CG  
REMARK    3  A    between atoms: CG   and  SD  
REMARK    4  A    between atoms: SD   and  CE  
ROOT
ATOM      1  CA  MET A 624      14.156  -1.311 -16.529  1.00 37.55     0.090 C 
ENDROOT
BRANCH   1   2
ATOM      2  CB  MET A 624      14.290  -0.416 -17.759  1.00 35.24    -0.030 C 
ATOM      3  HB2 MET A 624      14.710  -0.979 -18.625  1.00  0.00     0.037 H 
ATOM      4  HB1 MET A 624      13.292  -0.160 -18.183  1.00  0.00     0.037 H 
BRANCH   2   5
ATOM      5  CG  MET A 624      15.103   0.835 -17.468  1.00 41.56    -0.021 C 
ATOM      6  HG2 MET A 624      16.019   0.852 -18.104  1.00  0.00     0.049 H 
ATOM      7  HG1 MET A 624      15.566   0.762 -16.457  1.00  0.00     0.049 H 
BRANCH   5   8
ATOM      8  SD  MET A 624      14.215   2.391 -17.626  1.00 46.36    -0.173 SA
BRANCH   8   9
ATOM      9  CE  MET A 624      14.414   2.738 -19.371  1.00 43.21    -0.035 C 
ATOM     10  HE3 MET A 624      13.489   2.637 -19.985  1.00  0.00     0.041 H 
ATOM     11  HE1 MET A 624      15.243   2.043 -19.642  1.00  0.00     0.041 H 
ATOM     12  HE2 MET A 624      14.589   3.810 -19.627  1.00  0.00     0.041 H 
ENDBRANCH   8   9
ENDBRANCH   5   8
ENDBRANCH   2   5
ENDBRANCH   1   2
END_RES MET A 624
BEGIN_RES LEU A 625
REMARK  4 active torsions:
REMARK  status: ('A' for Active; 'I' for Inactive)
REMARK    5  A    between atoms: CA   and  CB  
REMARK    6  A    between atoms: CB   and  CG  
REMARK    7  A    between atoms: CG   and  CD1 
REMARK    8  A    between atoms: CG   and  CD2 
ROOT
ATOM     13  CA  LEU A 625      17.135  -3.624 -16.776  1.00 49.20     0.089 C 
ENDROOT
BRANCH  13  14
ATOM     14  CB  LEU A 625      17.051  -5.150 -16.753  1.00 47.95    -0.035 C 
ATOM     15  HB2 LEU A 625      16.609  -5.510 -17.711  1.00  0.00     0.037 H 
ATOM     16  HB1 LEU A 625      18.078  -5.577 -16.825  1.00  0.00     0.037 H 
BRANCH  14  17
ATOM     17  CG  LEU A 625      16.316  -5.795 -15.583  1.00 41.83    -0.059 C 
ATOM     18  HG  LEU A 625      15.570  -5.069 -15.182  1.00  0.00     0.038 H 
BRANCH  17  19
ATOM     19  CD1 LEU A 625      15.585  -7.024 -16.075  1.00 45.22    -0.073 C 
ATOM     20 3HD1 LEU A 625      14.493  -6.841 -16.216  1.00  0.00     0.028 H 
ATOM     21 2HD1 LEU A 625      15.839  -7.274 -17.132  1.00  0.00     0.028 H 
ATOM     22 1HD1 LEU A 625      15.786  -7.872 -15.378  1.00  0.00     0.028 H 
ENDBRANCH  17  19
BRANCH  17  23
ATOM     23  CD2 LEU A 625      17.295  -6.149 -14.480  1.00 48.58    -0.073 C 
ATOM     24 1HD2 LEU A 625      17.586  -5.233 -13.914  1.00  0.00     0.028 H 
ATOM     25 3HD2 LEU A 625      16.897  -6.945 -13.808  1.00  0.00     0.028 H 
ATOM     26 2HD2 LEU A 625      18.184  -6.696 -14.872  1.00  0.00     0.028 H 
ENDBRANCH  17  23
ENDBRANCH  14  17
ENDBRANCH  13  14
END_RES LEU A 625
BEGIN_RES CYS A 673
REMARK  1 active torsions:
REMARK  status: ('A' for Active; 'I' for Inactive)
REMARK    9  A    between atoms: CA   and  CB  
ROOT
ATOM     27  CA  CYS A 673       6.053  10.339  -6.366  1.00 37.53     0.098 C 
ENDROOT
BRANCH  27  28
ATOM     28  CB  CYS A 673       6.430   9.481  -5.160  1.00 34.59     0.013 C 
ATOM     29  SG  CYS A 673       4.991   8.653  -4.424  1.00 37.22    -0.095 SA
ATOM     30  HB1 CYS A 673       7.226   8.746  -5.423  1.00  0.00     0.053 H 
ATOM     31  HB2 CYS A 673       6.983  10.078  -4.399  1.00  0.00     0.053 H 
ENDBRANCH  27  28
END_RES CYS A 673
ENDMDL
MODEL 8
REMARK VINA RESULT:    -7.461      8.579     13.405
REMARK INTER + INTRA:         -16.050
REMARK INTER:                 -13.350
REMARK INTRA:                  -2.700
REMARK UNBOUND:                -2.700
REMARK SMILES CC(C)c1c(C(=O)Nc2ccccc2)c(-c2ccccc2)c(-c2ccc(F)cc2)n1CC[C@@H](O)C[C@@H](O)CC(=O)O
REMARK SMILES IDX 33 1 32 2 31 3 30 4 22 5 15 6 4 7 5 8 23 9 26 10 25 11 28 12
REMARK SMILES IDX 24 13 29 14 27 15 16 16 17 17 21 18 18 19 20 20 19 21 2 22
REMARK SMILES IDX 1 23 3 24 6 25 7 26 8 27 9 29 10 30 14 31 11 32 13 33 12 34
REMARK SMILES IDX 34 35 35 37 36 38 37 39 38 41 39 42 40 43 41 44
REMARK H PARENT 8 28 34 36 37 40 41 45
ROOT
ATOM      1  C   UNL     1      20.005  -7.746  -3.161  1.00  0.00     0.118 C 
ENDROOT
BRANCH   1   2
ATOM      2  C   UNL     1      19.264  -7.153  -4.360  1.00  0.00     0.053 C 
BRANCH   2   3
ATOM      3  C   UNL     1      19.987  -7.440  -5.679  1.00  0.00     0.125 C 
BRANCH   3   4
ATOM      4  N   UNL     1      19.432  -6.634  -6.771  1.00  0.00    -0.343 N 
ATOM      5  C   UNL     1      18.417  -7.064  -7.612  1.00  0.00     0.057 A 
ATOM      6  C   UNL     1      18.133  -6.017  -8.475  1.00  0.00     0.021 A 
ATOM      7  C   UNL     1      19.815  -5.338  -7.094  1.00  0.00     0.034 A 
ATOM      8  C   UNL     1      19.011  -4.926  -8.160  1.00  0.00     0.069 A 
BRANCH   5   9
ATOM      9  C   UNL     1      17.841  -8.412  -7.576  1.00  0.00    -0.001 A 
ATOM     10  C   UNL     1      16.734 -10.968  -7.483  1.00  0.00     0.123 A 
ATOM     11  C   UNL     1      17.947 -10.771  -8.132  1.00  0.00     0.040 A 
ATOM     12  C   UNL     1      16.067  -9.911  -6.874  1.00  0.00     0.040 A 
ATOM     13  C   UNL     1      18.506  -9.492  -8.174  1.00  0.00     0.013 A 
ATOM     14  C   UNL     1      16.621  -8.631  -6.920  1.00  0.00     0.013 A 
ATOM     15  F   UNL     1      16.200 -12.196  -7.442  1.00  0.00    -0.207 F 
ENDBRANCH   5   9
BRANCH   6  16
ATOM     16  C   UNL     1      17.132  -6.102  -9.532  1.00  0.00    -0.015 A 
ATOM     17  C   UNL     1      15.874  -5.515  -9.355  1.00  0.00     0.009 A 
ATOM     18  C   UNL     1      17.399  -6.814 -10.709  1.00  0.00     0.009 A 
ATOM     19  C   UNL     1      14.896  -5.639 -10.344  1.00  0.00     0.001 A 
ATOM     20  C   UNL     1      16.422  -6.932 -11.698  1.00  0.00     0.001 A 
ATOM     21  C   UNL     1      15.170  -6.346 -11.514  1.00  0.00     0.000 A 
ENDBRANCH   6  16
BRANCH   7  22
ATOM     22  C   UNL     1      20.913  -4.606  -6.339  1.00  0.00     0.031 C 
ATOM     23  C   UNL     1      20.452  -3.264  -5.768  1.00  0.00     0.014 C 
ATOM     24  C   UNL     1      22.181  -4.467  -7.180  1.00  0.00     0.014 C 
ENDBRANCH   7  22
BRANCH   8  25
ATOM     25  C   UNL     1      19.068  -3.620  -8.835  1.00  0.00     0.258 C 
ATOM     26  O   UNL     1      19.963  -3.350  -9.625  1.00  0.00    -0.269 OA
ATOM     27  N   UNL     1      18.034  -2.779  -8.469  1.00  0.00    -0.322 N 
ATOM     28  H   UNL     1      17.380  -3.154  -7.793  1.00  0.00     0.170 HD
BRANCH  27  29
ATOM     29  C   UNL     1      17.749  -1.487  -8.951  1.00  0.00     0.041 A 
ATOM     30  C   UNL     1      18.383  -0.328  -8.502  1.00  0.00     0.026 A 
ATOM     31  C   UNL     1      16.770  -1.382  -9.947  1.00  0.00     0.026 A 
ATOM     32  C   UNL     1      18.044   0.917  -9.041  1.00  0.00     0.002 A 
ATOM     33  C   UNL     1      16.431  -0.137 -10.485  1.00  0.00     0.002 A 
ATOM     34  C   UNL     1      17.069   1.013 -10.032  1.00  0.00     0.000 A 
ENDBRANCH  27  29
ENDBRANCH   8  25
ENDBRANCH   3   4
ENDBRANCH   2   3
ENDBRANCH   1   2
BRANCH   1  35
ATOM     35  O   UNL     1      20.160  -6.720  -2.176  1.00  0.00    -0.393 OA
ATOM     36  H   UNL     1      20.168  -7.156  -1.305  1.00  0.00     0.210 HD
ENDBRANCH   1  35
BRANCH   1  37
ATOM     37  C   UNL     1      19.270  -8.929  -2.513  1.00  0.00     0.064 C 
BRANCH  37  38
ATOM     38  C   UNL     1      19.758 -10.313  -2.955  1.00  0.00     0.128 C 
BRANCH  38  39
ATOM     39  O   UNL     1      19.661 -11.209  -1.847  1.00  0.00    -0.392 OA
ATOM     40  H   UNL     1      19.008 -10.819  -1.228  1.00  0.00     0.210 HD
ENDBRANCH  38  39
BRANCH  38  41
ATOM     41  C   UNL     1      18.926 -10.837  -4.128  1.00  0.00     0.154 C 
BRANCH  41  42
ATOM     42  C   UNL     1      18.132 -12.043  -3.709  1.00  0.00     0.305 C 
ATOM     43  O   UNL     1      16.959 -12.050  -3.368  1.00  0.00    -0.252 OA
BRANCH  42  44
ATOM     44  O   UNL     1      18.847 -13.179  -3.776  1.00  0.00    -0.481 OA
ATOM     45  H   UNL     1      19.525 -13.018  -4.466  1.00  0.00     0.296 HD
ENDBRANCH  42  44
ENDBRANCH  41  42
ENDBRANCH  38  41
ENDBRANCH  37  38
ENDBRANCH   1  37
TORSDOF 15
BEGIN_RES MET A 624
REMARK  4 active torsions:
REMARK  status: ('A' for Active; 'I' for Inactive)
REMARK    1  A    between atoms: CA   and  CB  
REMARK    2  A    between atoms: CB   and  CG  
REMARK    3  A    between atoms: CG   and  SD  
REMARK    4  A    between atoms: SD   and  CE  
ROOT
ATOM      1  CA  MET A 624      14.156  -1.311 -16.529  1.00 37.55     0.090 C 
ENDROOT
BRANCH   1   2
ATOM      2  CB  MET A 624      14.290  -0.416 -17.759  1.00 35.24    -0.030 C 
ATOM      3  HB2 MET A 624      14.719  -0.977 -18.622  1.00  0.00     0.037 H 
ATOM      4  HB1 MET A 624      13.292  -0.167 -18.188  1.00  0.00     0.037 H 
BRANCH   2   5
ATOM      5  CG  MET A 624      15.092   0.841 -17.464  1.00 41.56    -0.021 C 
ATOM      6  HG2 MET A 624      16.013   0.863 -18.094  1.00  0.00     0.049 H 
ATOM      7  HG1 MET A 624      15.549   0.773 -16.450  1.00  0.00     0.049 H 
BRANCH   5   8
ATOM      8  SD  MET A 624      14.195   2.391 -17.633  1.00 46.36    -0.173 SA
BRANCH   8   9
ATOM      9  CE  MET A 624      14.366   2.712 -19.386  1.00 43.21    -0.035 C 
ATOM     10  HE3 MET A 624      13.462   2.492 -20.001  1.00  0.00     0.041 H 
ATOM     11  HE1 MET A 624      15.270   2.107 -19.635  1.00  0.00     0.041 H 
ATOM     12  HE2 MET A 624      14.422   3.789 -19.670  1.00  0.00     0.041 H 
ENDBRANCH   8   9
ENDBRANCH   5   8
ENDBRANCH   2   5
ENDBRANCH   1   2
END_RES MET A 624
BEGIN_RES LEU A 625
REMARK  4 active torsions:
REMARK  status: ('A' for Active; 'I' for Inactive)
REMARK    5  A    between atoms: CA   and  CB  
REMARK    6  A    between atoms: CB   and  CG  
REMARK    7  A    between atoms: CG   and  CD1 
REMARK    8  A    between atoms: CG   and  CD2 
ROOT
ATOM     13  CA  LEU A 625      17.135  -3.624 -16.776  1.00 49.20     0.089 C 
ENDROOT
BRANCH  13  14
ATOM     14  CB  LEU A 625      17.051  -5.150 -16.753  1.00 47.95    -0.035 C 
ATOM     15  HB2 LEU A 625      16.406  -5.497 -17.594  1.00  0.00     0.037 H 
ATOM     16  HB1 LEU A 625      18.035  -5.578 -17.055  1.00  0.00     0.037 H 
BRANCH  14  17
ATOM     17  CG  LEU A 625      16.589  -5.808 -15.457  1.00 41.83    -0.059 C 
ATOM     18  HG  LEU A 625      16.015  -5.062 -14.859  1.00  0.00     0.038 H 
BRANCH  17  19
ATOM     19  CD1 LEU A 625      15.681  -6.971 -15.789  1.00 45.22    -0.073 C 
ATOM     20 3HD1 LEU A 625      14.913  -7.149 -14.999  1.00  0.00     0.028 H 
ATOM     21 2HD1 LEU A 625      14.988  -6.741 -16.632  1.00  0.00     0.028 H 
ATOM     22 1HD1 LEU A 625      16.304  -7.875 -15.987  1.00  0.00     0.028 H 
ENDBRANCH  17  19
BRANCH  17  23
ATOM     23  CD2 LEU A 625      17.787  -6.267 -14.647  1.00 48.58    -0.073 C 
ATOM     24 1HD2 LEU A 625      18.165  -7.241 -15.035  1.00  0.00     0.028 H 
ATOM     25 3HD2 LEU A 625      18.589  -5.492 -14.613  1.00  0.00     0.028 H 
ATOM     26 2HD2 LEU A 625      17.559  -6.314 -13.556  1.00  0.00     0.028 H 
ENDBRANCH  17  23
ENDBRANCH  14  17
ENDBRANCH  13  14
END_RES LEU A 625
BEGIN_RES CYS A 673
REMARK  1 active torsions:
REMARK  status: ('A' for Active; 'I' for Inactive)
REMARK    9  A    between atoms: CA   and  CB  
ROOT
ATOM     27  CA  CYS A 673       6.053  10.339  -6.366  1.00 37.53     0.098 C 
ENDROOT
BRANCH  27  28
ATOM     28  CB  CYS A 673       6.430   9.481  -5.160  1.00 34.59     0.013 C 
ATOM     29  SG  CYS A 673       5.068   8.406  -4.623  1.00 37.22    -0.095 SA
ATOM     30  HB1 CYS A 673       7.354   8.890  -5.360  1.00  0.00     0.053 H 
ATOM     31  HB2 CYS A 673       6.801  10.111  -4.319  1.00  0.00     0.053 H 
ENDBRANCH  27  28
END_RES CYS A 673
ENDMDL
MODEL 9
REMARK VINA RESULT:    -7.446      8.401     12.854
REMARK INTER + INTRA:         -16.024
REMARK INTER:                 -13.642
REMARK INTRA:                  -2.382
REMARK UNBOUND:                -2.700
REMARK SMILES CC(C)c1c(C(=O)Nc2ccccc2)c(-c2ccccc2)c(-c2ccc(F)cc2)n1CC[C@@H](O)C[C@@H](O)CC(=O)O
REMARK SMILES IDX 33 1 32 2 31 3 30 4 22 5 15 6 4 7 5 8 23 9 26 10 25 11 28 12
REMARK SMILES IDX 24 13 29 14 27 15 16 16 17 17 21 18 18 19 20 20 19 21 2 22
REMARK SMILES IDX 1 23 3 24 6 25 7 26 8 27 9 29 10 30 14 31 11 32 13 33 12 34
REMARK SMILES IDX 34 35 35 37 36 38 37 39 38 41 39 42 40 43 41 44
REMARK H PARENT 8 28 34 36 37 40 41 45
ROOT
ATOM      1  C   UNL     1      19.881  -6.218  -3.232  1.00  0.00     0.118 C 
ENDROOT
BRANCH   1   2
ATOM      2  C   UNL     1      19.265  -7.033  -4.368  1.00  0.00     0.053 C 
BRANCH   2   3
ATOM      3  C   UNL     1      20.169  -7.070  -5.604  1.00  0.00     0.125 C 
BRANCH   3   4
ATOM      4  N   UNL     1      19.565  -6.340  -6.722  1.00  0.00    -0.343 N 
ATOM      5  C   UNL     1      18.560  -6.854  -7.529  1.00  0.00     0.057 A 
ATOM      6  C   UNL     1      18.218  -5.861  -8.434  1.00  0.00     0.021 A 
ATOM      7  C   UNL     1      19.884  -5.044  -7.108  1.00  0.00     0.034 A 
ATOM      8  C   UNL     1      19.049  -4.718  -8.181  1.00  0.00     0.069 A 
BRANCH   5   9
ATOM      9  C   UNL     1      18.047  -8.224  -7.424  1.00  0.00    -0.001 A 
ATOM     10  C   UNL     1      17.089 -10.834  -7.245  1.00  0.00     0.123 A 
ATOM     11  C   UNL     1      16.282  -9.780  -6.834  1.00  0.00     0.040 A 
ATOM     12  C   UNL     1      18.364 -10.607  -7.750  1.00  0.00     0.040 A 
ATOM     13  C   UNL     1      16.760  -8.471  -6.929  1.00  0.00     0.013 A 
ATOM     14  C   UNL     1      18.845  -9.300  -7.841  1.00  0.00     0.013 A 
ATOM     15  F   UNL     1      16.629 -12.089  -7.156  1.00  0.00    -0.207 F 
ENDBRANCH   5   9
BRANCH   6  16
ATOM     16  C   UNL     1      17.209  -6.039  -9.472  1.00  0.00    -0.015 A 
ATOM     17  C   UNL     1      17.483  -6.839 -10.587  1.00  0.00     0.009 A 
ATOM     18  C   UNL     1      15.978  -5.375  -9.389  1.00  0.00     0.009 A 
ATOM     19  C   UNL     1      16.539  -6.970 -11.606  1.00  0.00     0.001 A 
ATOM     20  C   UNL     1      15.033  -5.512 -10.406  1.00  0.00     0.001 A 
ATOM     21  C   UNL     1      15.315  -6.308 -11.515  1.00  0.00     0.000 A 
ENDBRANCH   6  16
BRANCH   7  22
ATOM     22  C   UNL     1      20.956  -4.230  -6.402  1.00  0.00     0.031 C 
ATOM     23  C   UNL     1      20.432  -2.900  -5.857  1.00  0.00     0.014 C 
ATOM     24  C   UNL     1      22.193  -4.044  -7.280  1.00  0.00     0.014 C 
ENDBRANCH   7  22
BRANCH   8  25
ATOM     25  C   UNL     1      19.037  -3.442  -8.914  1.00  0.00     0.258 C 
ATOM     26  O   UNL     1      19.874  -3.195  -9.773  1.00  0.00    -0.269 OA
ATOM     27  N   UNL     1      18.015  -2.602  -8.517  1.00  0.00    -0.322 N 
ATOM     28  H   UNL     1      17.414  -2.956  -7.783  1.00  0.00     0.170 HD
BRANCH  27  29
ATOM     29  C   UNL     1      17.676  -1.337  -9.034  1.00  0.00     0.041 A 
ATOM     30  C   UNL     1      16.732  -1.131 -10.041  1.00  0.00     0.026 A 
ATOM     31  C   UNL     1      18.334  -0.229  -8.486  1.00  0.00     0.026 A 
ATOM     32  C   UNL     1      16.449   0.161 -10.493  1.00  0.00     0.002 A 
ATOM     33  C   UNL     1      18.052   1.063  -8.937  1.00  0.00     0.002 A 
ATOM     34  C   UNL     1      17.109   1.258  -9.941  1.00  0.00     0.000 A 
ENDBRANCH  27  29
ENDBRANCH   8  25
ENDBRANCH   3   4
ENDBRANCH   2   3
ENDBRANCH   1   2
BRANCH   1  35
ATOM     35  O   UNL     1      21.255  -5.975  -3.546  1.00  0.00    -0.393 OA
ATOM     36  H   UNL     1      21.666  -6.838  -3.731  1.00  0.00     0.210 HD
ENDBRANCH   1  35
BRANCH   1  37
ATOM     37  C   UNL     1      19.191  -4.863  -3.008  1.00  0.00     0.064 C 
BRANCH  37  38
ATOM     38  C   UNL     1      19.213  -4.358  -1.561  1.00  0.00     0.128 C 
BRANCH  38  39
ATOM     39  O   UNL     1      20.057  -5.214  -0.790  1.00  0.00    -0.392 OA
ATOM     40  H   UNL     1      20.708  -4.635  -0.342  1.00  0.00     0.210 HD
ENDBRANCH  38  39
BRANCH  38  41
ATOM     41  C   UNL     1      19.724  -2.917  -1.494  1.00  0.00     0.154 C 
BRANCH  41  42
ATOM     42  C   UNL     1      20.233  -2.605  -0.114  1.00  0.00     0.305 C 
ATOM     43  O   UNL     1      21.316  -2.932   0.345  1.00  0.00    -0.252 OA
BRANCH  42  44
ATOM     44  O   UNL     1      19.364  -1.870   0.602  1.00  0.00    -0.481 OA
ATOM     45  H   UNL     1      18.489  -2.027   0.187  1.00  0.00     0.296 HD
ENDBRANCH  42  44
ENDBRANCH  41  42
ENDBRANCH  38  41
ENDBRANCH  37  38
ENDBRANCH   1  37
TORSDOF 15
BEGIN_RES MET A 624
REMARK  4 active torsions:
REMARK  status: ('A' for Active; 'I' for Inactive)
REMARK    1  A    between atoms: CA   and  CB  
REMARK    2  A    between atoms: CB   and  CG  
REMARK    3  A    between atoms: CG   and  SD  
REMARK    4  A    between atoms: SD   and  CE  
ROOT
ATOM      1  CA  MET A 624      14.156  -1.311 -16.529  1.00 37.55     0.090 C 
ENDROOT
BRANCH   1   2
ATOM      2  CB  MET A 624      14.290  -0.416 -17.759  1.00 35.24    -0.030 C 
ATOM      3  HB2 MET A 624      14.712  -0.979 -18.625  1.00  0.00     0.037 H 
ATOM      4  HB1 MET A 624      13.292  -0.161 -18.184  1.00  0.00     0.037 H 
BRANCH   2   5
ATOM      5  CG  MET A 624      15.101   0.836 -17.467  1.00 41.56    -0.021 C 
ATOM      6  HG2 MET A 624      16.042   0.830 -18.067  1.00  0.00     0.049 H 
ATOM      7  HG1 MET A 624      15.523   0.785 -16.437  1.00  0.00     0.049 H 
BRANCH   5   8
ATOM      8  SD  MET A 624      14.233   2.394 -17.700  1.00 46.36    -0.173 SA
BRANCH   8   9
ATOM      9  CE  MET A 624      14.436   2.654 -19.460  1.00 43.21    -0.035 C 
ATOM     10  HE3 MET A 624      14.035   1.841 -20.111  1.00  0.00     0.041 H 
ATOM     11  HE1 MET A 624      15.536   2.824 -19.534  1.00  0.00     0.041 H 
ATOM     12  HE2 MET A 624      13.800   3.458 -19.899  1.00  0.00     0.041 H 
ENDBRANCH   8   9
ENDBRANCH   5   8
ENDBRANCH   2   5
ENDBRANCH   1   2
END_RES MET A 624
BEGIN_RES LEU A 625
REMARK  4 active torsions:
REMARK  status: ('A' for Active; 'I' for Inactive)
REMARK    5  A    between atoms: CA   and  CB  
REMARK    6  A    between atoms: CB   and  CG  
REMARK    7  A    between atoms: CG   and  CD1 
REMARK    8  A    between atoms: CG   and  CD2 
ROOT
ATOM     13  CA  LEU A 625      17.135  -3.624 -16.776  1.00 49.20     0.089 C 
ENDROOT
BRANCH  13  14
ATOM     14  CB  LEU A 625      17.051  -5.150 -16.753  1.00 47.95    -0.035 C 
ATOM     15  HB2 LEU A 625      16.408  -5.497 -17.595  1.00  0.00     0.037 H 
ATOM     16  HB1 LEU A 625      18.036  -5.578 -17.053  1.00  0.00     0.037 H 
BRANCH  14  17
ATOM     17  CG  LEU A 625      16.586  -5.808 -15.458  1.00 41.83    -0.059 C 
ATOM     18  HG  LEU A 625      16.019  -5.059 -14.857  1.00  0.00     0.038 H 
BRANCH  17  19
ATOM     19  CD1 LEU A 625      15.669  -6.963 -15.792  1.00 45.22    -0.073 C 
ATOM     20 3HD1 LEU A 625      14.649  -6.834 -15.356  1.00  0.00     0.028 H 
ATOM     21 2HD1 LEU A 625      15.379  -6.977 -16.868  1.00  0.00     0.028 H 
ATOM     22 1HD1 LEU A 625      16.150  -7.916 -15.470  1.00  0.00     0.028 H 
ENDBRANCH  17  19
BRANCH  17  23
ATOM     23  CD2 LEU A 625      17.782  -6.278 -14.651  1.00 48.58    -0.073 C 
ATOM     24 1HD2 LEU A 625      18.188  -7.225 -15.079  1.00  0.00     0.028 H 
ATOM     25 3HD2 LEU A 625      18.566  -5.489 -14.569  1.00  0.00     0.028 H 
ATOM     26 2HD2 LEU A 625      17.539  -6.381 -13.568  1.00  0.00     0.028 H 
ENDBRANCH  17  23
ENDBRANCH  14  17
ENDBRANCH  13  14
END_RES LEU A 625
BEGIN_RES CYS A 673
REMARK  1 active torsions:
REMARK  status: ('A' for Active; 'I' for Inactive)
REMARK    9  A    between atoms: CA   and  CB  
ROOT
ATOM     27  CA  CYS A 673       6.053  10.339  -6.366  1.00 37.53     0.098 C 
ENDROOT
BRANCH  27  28
ATOM     28  CB  CYS A 673       6.430   9.481  -5.160  1.00 34.59     0.013 C 
ATOM     29  SG  CYS A 673       5.025   8.517  -4.532  1.00 37.22    -0.095 SA
ATOM     30  HB1 CYS A 673       7.299   8.822  -5.392  1.00  0.00     0.053 H 
ATOM     31  HB2 CYS A 673       6.886  10.100  -4.353  1.00  0.00     0.053 H 
ENDBRANCH  27  28
END_RES CYS A 673
ENDMDL
