MODEL 1
REMARK VINA RESULT:    -5.720      0.000      0.000
REMARK INTER + INTRA:          -3.904
REMARK INTER:                  -5.040
REMARK INTRA:                   1.136
REMARK UNBOUND:                 1.816
REMARK SMILES C1C2CC3CC1CC(C2)C3
REMARK SMILES IDX 2 1 6 2 4 3 8 4 1 5 3 6 9 7 5 8 7 9 10 10
REMARK H PARENT
ROOT
ATOM      1  C   UNL     1      15.124  -6.860  -8.832  1.00  0.00    -0.010 C 
ATOM      2  C   UNL     1      15.078  -7.012 -11.349  1.00  0.00    -0.010 C 
ATOM      3  C   UNL     1      17.279  -7.101 -10.120  1.00  0.00    -0.010 C 
ATOM      4  C   UNL     1      15.981  -4.942 -10.228  1.00  0.00    -0.010 C 
ATOM      5  C   UNL     1      14.346  -7.388 -10.049  1.00  0.00     0.007 C 
ATOM      6  C   UNL     1      16.534  -7.476  -8.827  1.00  0.00     0.007 C 
ATOM      7  C   UNL     1      15.243  -5.328  -8.935  1.00  0.00     0.007 C 
ATOM      8  C   UNL     1      16.488  -7.629 -11.330  1.00  0.00     0.007 C 
ATOM      9  C   UNL     1      15.197  -5.481 -11.438  1.00  0.00     0.007 C 
ATOM     10  C   UNL     1      17.385  -5.569 -10.216  1.00  0.00     0.007 C 
ENDROOT
TORSDOF 0
BEGIN_RES MET A 624
REMARK  4 active torsions:
REMARK  status: ('A' for Active; 'I' for Inactive)
REMARK    1  A    between atoms: CA   and  CB  
REMARK    2  A    between atoms: CB   and  CG  
REMARK    3  A    between atoms: CG   and  SD  
REMARK    4  A    between atoms: SD   and  CE  
ROOT
ATOM      1  CA  MET A 624      14.156  -1.311 -16.529  1.00 37.55     0.090 C 
ENDROOT
BRANCH   1   2
ATOM      2  CB  MET A 624      14.290  -0.416 -17.759  1.00 35.24    -0.030 C 
ATOM      3  HB2 MET A 624      15.014  -0.842 -18.493  1.00  0.00     0.037 H 
ATOM      4  HB1 MET A 624      13.367  -0.446 -18.383  1.00  0.00     0.037 H 
BRANCH   2   5
ATOM      5  CG  MET A 624      14.658   1.011 -17.388  1.00 41.56    -0.021 C 
ATOM      6  HG2 MET A 624      15.704   1.231 -17.706  1.00  0.00     0.049 H 
ATOM      7  HG1 MET A 624      14.766   1.102 -16.282  1.00  0.00     0.049 H 
BRANCH   5   8
ATOM      8  SD  MET A 624      13.547   2.284 -18.005  1.00 46.36    -0.173 SA
BRANCH   8   9
ATOM      9  CE  MET A 624      14.608   3.155 -19.155  1.00 43.21    -0.035 C 
ATOM     10  HE3 MET A 624      15.641   2.747 -19.253  1.00  0.00     0.041 H 
ATOM     11  HE1 MET A 624      14.544   4.199 -18.768  1.00  0.00     0.041 H 
ATOM     12  HE2 MET A 624      14.347   3.030 -20.232  1.00  0.00     0.041 H 
ENDBRANCH   8   9
ENDBRANCH   5   8
ENDBRANCH   2   5
ENDBRANCH   1   2
END_RES MET A 624
BEGIN_RES LEU A 625
REMARK  4 active torsions:
REMARK  status: ('A' for Active; 'I' for Inactive)
REMARK    5  A    between atoms: CA   and  CB  
REMARK    6  A    between atoms: CB   and  CG  
REMARK    7  A    between atoms: CG   and  CD1 
REMARK    8  A    between atoms: CG   and  CD2 
ROOT
ATOM     13  CA  LEU A 625      17.135  -3.624 -16.776  1.00 49.20     0.089 C 
ENDROOT
BRANCH  13  14
ATOM     14  CB  LEU A 625      17.051  -5.150 -16.753  1.00 47.95    -0.035 C 
ATOM     15  HB2 LEU A 625      16.543  -5.506 -17.680  1.00  0.00     0.037 H 
ATOM     16  HB1 LEU A 625      18.070  -5.578 -16.897  1.00  0.00     0.037 H 
BRANCH  14  17
ATOM     17  CG  LEU A 625      16.397  -5.799 -15.537  1.00 41.83    -0.059 C 
ATOM     18  HG  LEU A 625      15.678  -5.076 -15.086  1.00  0.00     0.038 H 
BRANCH  17  19
ATOM     19  CD1 LEU A 625      15.638  -7.029 -15.982  1.00 45.22    -0.073 C 
ATOM     20 3HD1 LEU A 625      16.072  -7.969 -15.564  1.00  0.00     0.028 H 
ATOM     21 2HD1 LEU A 625      14.630  -7.099 -15.510  1.00  0.00     0.028 H 
ATOM     22 1HD1 LEU A 625      15.587  -7.044 -17.096  1.00  0.00     0.028 H 
ENDBRANCH  17  19
BRANCH  17  23
ATOM     23  CD2 LEU A 625      17.449  -6.152 -14.503  1.00 48.58    -0.073 C 
ATOM     24 1HD2 LEU A 625      16.980  -6.258 -13.497  1.00  0.00     0.028 H 
ATOM     25 3HD2 LEU A 625      18.028  -7.061 -14.790  1.00  0.00     0.028 H 
ATOM     26 2HD2 LEU A 625      18.289  -5.419 -14.496  1.00  0.00     0.028 H 
ENDBRANCH  17  23
ENDBRANCH  14  17
ENDBRANCH  13  14
END_RES LEU A 625
BEGIN_RES CYS A 673
REMARK  1 active torsions:
REMARK  status: ('A' for Active; 'I' for Inactive)
REMARK    9  A    between atoms: CA   and  CB  
ROOT
ATOM     27  CA  CYS A 673       6.053  10.339  -6.366  1.00 37.53     0.098 C 
ENDROOT
BRANCH  27  28
ATOM     28  CB  CYS A 673       6.430   9.481  -5.160  1.00 34.59     0.013 C 
ATOM     29  SG  CYS A 673       5.021   8.530  -4.521  1.00 37.22    -0.095 SA
ATOM     30  HB1 CYS A 673       7.292   8.814  -5.395  1.00  0.00     0.053 H 
ATOM     31  HB2 CYS A 673       6.896  10.098  -4.358  1.00  0.00     0.053 H 
ENDBRANCH  27  28
END_RES CYS A 673
ENDMDL
MODEL 2
REMARK VINA RESULT:    -5.707      0.028      1.828
REMARK INTER + INTRA:          -3.891
REMARK INTER:                  -5.050
REMARK INTRA:                   1.159
REMARK UNBOUND:                 1.816
REMARK SMILES C1C2CC3CC1CC(C2)C3
REMARK SMILES IDX 2 1 6 2 4 3 8 4 1 5 3 6 9 7 5 8 7 9 10 10
REMARK H PARENT
ROOT
ATOM      1  C   UNL     1      15.143  -6.851  -8.818  1.00  0.00    -0.010 C 
ATOM      2  C   UNL     1      17.280  -7.094 -10.135  1.00  0.00    -0.010 C 
ATOM      3  C   UNL     1      15.978  -4.936 -10.233  1.00  0.00    -0.010 C 
ATOM      4  C   UNL     1      15.063  -7.012 -11.334  1.00  0.00    -0.010 C 
ATOM      5  C   UNL     1      16.553  -7.465  -8.830  1.00  0.00     0.007 C 
ATOM      6  C   UNL     1      15.257  -5.320  -8.928  1.00  0.00     0.007 C 
ATOM      7  C   UNL     1      14.349  -7.385 -10.024  1.00  0.00     0.007 C 
ATOM      8  C   UNL     1      17.383  -5.562 -10.236  1.00  0.00     0.007 C 
ATOM      9  C   UNL     1      16.474  -7.627 -11.333  1.00  0.00     0.007 C 
ATOM     10  C   UNL     1      15.179  -5.481 -11.430  1.00  0.00     0.007 C 
ENDROOT
TORSDOF 0
BEGIN_RES MET A 624
REMARK  4 active torsions:
REMARK  status: ('A' for Active; 'I' for Inactive)
REMARK    1  A    between atoms: CA   and  CB  
REMARK    2  A    between atoms: CB   and  CG  
REMARK    3  A    between atoms: CG   and  SD  
REMARK    4  A    between atoms: SD   and  CE  
ROOT
ATOM      1  CA  MET A 624      14.156  -1.311 -16.529  1.00 37.55     0.090 C 
ENDROOT
BRANCH   1   2
ATOM      2  CB  MET A 624      14.290  -0.416 -17.759  1.00 35.24    -0.030 C 
ATOM      3  HB2 MET A 624      15.006  -0.847 -18.497  1.00  0.00     0.037 H 
ATOM      4  HB1 MET A 624      13.364  -0.439 -18.378  1.00  0.00     0.037 H 
BRANCH   2   5
ATOM      5  CG  MET A 624      14.671   1.008 -17.389  1.00 41.56    -0.021 C 
ATOM      6  HG2 MET A 624      15.716   1.221 -17.716  1.00  0.00     0.049 H 
ATOM      7  HG1 MET A 624      14.788   1.096 -16.284  1.00  0.00     0.049 H 
BRANCH   5   8
ATOM      8  SD  MET A 624      13.564   2.290 -17.995  1.00 46.36    -0.173 SA
BRANCH   8   9
ATOM      9  CE  MET A 624      14.626   3.164 -19.141  1.00 43.21    -0.035 C 
ATOM     10  HE3 MET A 624      15.481   3.708 -18.677  1.00  0.00     0.041 H 
ATOM     11  HE1 MET A 624      13.889   3.806 -19.679  1.00  0.00     0.041 H 
ATOM     12  HE2 MET A 624      15.259   2.517 -19.792  1.00  0.00     0.041 H 
ENDBRANCH   8   9
ENDBRANCH   5   8
ENDBRANCH   2   5
ENDBRANCH   1   2
END_RES MET A 624
BEGIN_RES LEU A 625
REMARK  4 active torsions:
REMARK  status: ('A' for Active; 'I' for Inactive)
REMARK    5  A    between atoms: CA   and  CB  
REMARK    6  A    between atoms: CB   and  CG  
REMARK    7  A    between atoms: CG   and  CD1 
REMARK    8  A    between atoms: CG   and  CD2 
ROOT
ATOM     13  CA  LEU A 625      17.135  -3.624 -16.776  1.00 49.20     0.089 C 
ENDROOT
BRANCH  13  14
ATOM     14  CB  LEU A 625      17.051  -5.150 -16.753  1.00 47.95    -0.035 C 
ATOM     15  HB2 LEU A 625      16.516  -5.504 -17.665  1.00  0.00     0.037 H 
ATOM     16  HB1 LEU A 625      18.066  -5.578 -16.928  1.00  0.00     0.037 H 
BRANCH  14  17
ATOM     17  CG  LEU A 625      16.433  -5.801 -15.520  1.00 41.83    -0.059 C 
ATOM     18  HG  LEU A 625      15.727  -5.078 -15.047  1.00  0.00     0.038 H 
BRANCH  17  19
ATOM     19  CD1 LEU A 625      15.663  -7.031 -15.943  1.00 45.22    -0.073 C 
ATOM     20 3HD1 LEU A 625      14.770  -7.215 -15.299  1.00  0.00     0.028 H 
ATOM     21 2HD1 LEU A 625      15.130  -6.885 -16.912  1.00  0.00     0.028 H 
ATOM     22 1HD1 LEU A 625      16.355  -7.905 -15.967  1.00  0.00     0.028 H 
ENDBRANCH  17  19
BRANCH  17  23
ATOM     23  CD2 LEU A 625      17.515  -6.154 -14.516  1.00 48.58    -0.073 C 
ATOM     24 1HD2 LEU A 625      17.957  -5.226 -14.083  1.00  0.00     0.028 H 
ATOM     25 3HD2 LEU A 625      17.141  -6.845 -13.725  1.00  0.00     0.028 H 
ATOM     26 2HD2 LEU A 625      18.293  -6.818 -14.959  1.00  0.00     0.028 H 
ENDBRANCH  17  23
ENDBRANCH  14  17
ENDBRANCH  13  14
END_RES LEU A 625
BEGIN_RES CYS A 673
REMARK  1 active torsions:
REMARK  status: ('A' for Active; 'I' for Inactive)
REMARK    9  A    between atoms: CA   and  CB  
ROOT
ATOM     27  CA  CYS A 673       6.053  10.339  -6.366  1.00 37.53     0.098 C 
ENDROOT
BRANCH  27  28
ATOM     28  CB  CYS A 673       6.430   9.481  -5.160  1.00 34.59     0.013 C 
ATOM     29  SG  CYS A 673       5.021   8.529  -4.521  1.00 37.22    -0.095 SA
ATOM     30  HB1 CYS A 673       7.293   8.815  -5.395  1.00  0.00     0.053 H 
ATOM     31  HB2 CYS A 673       6.896  10.098  -4.357  1.00  0.00     0.053 H 
ENDBRANCH  27  28
END_RES CYS A 673
ENDMDL
MODEL 3
REMARK VINA RESULT:    -5.706      0.033      2.112
REMARK INTER + INTRA:          -3.890
REMARK INTER:                  -5.046
REMARK INTRA:                   1.156
REMARK UNBOUND:                 1.816
REMARK SMILES C1C2CC3CC1CC(C2)C3
REMARK SMILES IDX 2 1 6 2 4 3 8 4 1 5 3 6 9 7 5 8 7 9 10 10
REMARK H PARENT
ROOT
ATOM      1  C   UNL     1      15.999  -4.936 -10.239  1.00  0.00    -0.010 C 
ATOM      2  C   UNL     1      17.290  -7.099 -10.121  1.00  0.00    -0.010 C 
ATOM      3  C   UNL     1      15.099  -7.004 -11.367  1.00  0.00    -0.010 C 
ATOM      4  C   UNL     1      15.126  -6.852  -8.850  1.00  0.00    -0.010 C 
ATOM      5  C   UNL     1      17.401  -5.567 -10.216  1.00  0.00     0.007 C 
ATOM      6  C   UNL     1      15.223  -5.472 -11.454  1.00  0.00     0.007 C 
ATOM      7  C   UNL     1      15.250  -5.322  -8.951  1.00  0.00     0.007 C 
ATOM      8  C   UNL     1      16.507  -7.624 -11.338  1.00  0.00     0.007 C 
ATOM      9  C   UNL     1      16.534  -7.473  -8.834  1.00  0.00     0.007 C 
ATOM     10  C   UNL     1      14.355  -7.378 -10.073  1.00  0.00     0.007 C 
ENDROOT
TORSDOF 0
BEGIN_RES MET A 624
REMARK  4 active torsions:
REMARK  status: ('A' for Active; 'I' for Inactive)
REMARK    1  A    between atoms: CA   and  CB  
REMARK    2  A    between atoms: CB   and  CG  
REMARK    3  A    between atoms: CG   and  SD  
REMARK    4  A    between atoms: SD   and  CE  
ROOT
ATOM      1  CA  MET A 624      14.156  -1.311 -16.529  1.00 37.55     0.090 C 
ENDROOT
BRANCH   1   2
ATOM      2  CB  MET A 624      14.290  -0.416 -17.759  1.00 35.24    -0.030 C 
ATOM      3  HB2 MET A 624      15.007  -0.847 -18.497  1.00  0.00     0.037 H 
ATOM      4  HB1 MET A 624      13.364  -0.440 -18.379  1.00  0.00     0.037 H 
BRANCH   2   5
ATOM      5  CG  MET A 624      14.670   1.009 -17.388  1.00 41.56    -0.021 C 
ATOM      6  HG2 MET A 624      15.715   1.222 -17.713  1.00  0.00     0.049 H 
ATOM      7  HG1 MET A 624      14.784   1.098 -16.283  1.00  0.00     0.049 H 
BRANCH   5   8
ATOM      8  SD  MET A 624      13.563   2.289 -17.998  1.00 46.36    -0.173 SA
BRANCH   8   9
ATOM      9  CE  MET A 624      14.625   3.161 -19.145  1.00 43.21    -0.035 C 
ATOM     10  HE3 MET A 624      15.025   4.135 -18.778  1.00  0.00     0.041 H 
ATOM     11  HE1 MET A 624      13.973   3.225 -20.047  1.00  0.00     0.041 H 
ATOM     12  HE2 MET A 624      15.626   2.698 -19.313  1.00  0.00     0.041 H 
ENDBRANCH   8   9
ENDBRANCH   5   8
ENDBRANCH   2   5
ENDBRANCH   1   2
END_RES MET A 624
BEGIN_RES LEU A 625
REMARK  4 active torsions:
REMARK  status: ('A' for Active; 'I' for Inactive)
REMARK    5  A    between atoms: CA   and  CB  
REMARK    6  A    between atoms: CB   and  CG  
REMARK    7  A    between atoms: CG   and  CD1 
REMARK    8  A    between atoms: CG   and  CD2 
ROOT
ATOM     13  CA  LEU A 625      17.135  -3.624 -16.776  1.00 49.20     0.089 C 
ENDROOT
BRANCH  13  14
ATOM     14  CB  LEU A 625      17.051  -5.150 -16.753  1.00 47.95    -0.035 C 
ATOM     15  HB2 LEU A 625      16.509  -5.504 -17.661  1.00  0.00     0.037 H 
ATOM     16  HB1 LEU A 625      18.064  -5.578 -16.935  1.00  0.00     0.037 H 
BRANCH  14  17
ATOM     17  CG  LEU A 625      16.442  -5.801 -15.515  1.00 41.83    -0.059 C 
ATOM     18  HG  LEU A 625      15.740  -5.078 -15.037  1.00  0.00     0.038 H 
BRANCH  17  19
ATOM     19  CD1 LEU A 625      15.667  -7.031 -15.934  1.00 45.22    -0.073 C 
ATOM     20 3HD1 LEU A 625      15.833  -7.292 -17.006  1.00  0.00     0.028 H 
ATOM     21 2HD1 LEU A 625      16.076  -7.964 -15.480  1.00  0.00     0.028 H 
ATOM     22 1HD1 LEU A 625      14.589  -6.881 -15.695  1.00  0.00     0.028 H 
ENDBRANCH  17  19
BRANCH  17  23
ATOM     23  CD2 LEU A 625      17.532  -6.156 -14.521  1.00 48.58    -0.073 C 
ATOM     24 1HD2 LEU A 625      17.311  -7.138 -14.041  1.00  0.00     0.028 H 
ATOM     25 3HD2 LEU A 625      18.544  -6.139 -14.988  1.00  0.00     0.028 H 
ATOM     26 2HD2 LEU A 625      17.686  -5.350 -13.767  1.00  0.00     0.028 H 
ENDBRANCH  17  23
ENDBRANCH  14  17
ENDBRANCH  13  14
END_RES LEU A 625
BEGIN_RES CYS A 673
REMARK  1 active torsions:
REMARK  status: ('A' for Active; 'I' for Inactive)
REMARK    9  A    between atoms: CA   and  CB  
ROOT
ATOM     27  CA  CYS A 673       6.053  10.339  -6.366  1.00 37.53     0.098 C 
ENDROOT
BRANCH  27  28
ATOM     28  CB  CYS A 673       6.430   9.481  -5.160  1.00 34.59     0.013 C 
ATOM     29  SG  CYS A 673       5.017   8.542  -4.511  1.00 37.22    -0.095 SA
ATOM     30  HB1 CYS A 673       7.286   8.807  -5.398  1.00  0.00     0.053 H 
ATOM     31  HB2 CYS A 673       6.905  10.096  -4.362  1.00  0.00     0.053 H 
ENDBRANCH  27  28
END_RES CYS A 673
ENDMDL
MODEL 4
REMARK VINA RESULT:    -5.705      0.029      1.826
REMARK INTER + INTRA:          -3.890
REMARK INTER:                  -5.046
REMARK INTRA:                   1.156
REMARK UNBOUND:                 1.816
REMARK SMILES C1C2CC3CC1CC(C2)C3
REMARK SMILES IDX 2 1 6 2 4 3 8 4 1 5 3 6 9 7 5 8 7 9 10 10
REMARK H PARENT
ROOT
ATOM      1  C   UNL     1      16.000  -4.932 -10.242  1.00  0.00    -0.010 C 
ATOM      2  C   UNL     1      15.111  -6.842  -8.856  1.00  0.00    -0.010 C 
ATOM      3  C   UNL     1      17.280  -7.102 -10.118  1.00  0.00    -0.010 C 
ATOM      4  C   UNL     1      15.096  -6.997 -11.373  1.00  0.00    -0.010 C 
ATOM      5  C   UNL     1      15.244  -5.312  -8.958  1.00  0.00     0.007 C 
ATOM      6  C   UNL     1      17.400  -5.570 -10.213  1.00  0.00     0.007 C 
ATOM      7  C   UNL     1      15.227  -5.467 -11.461  1.00  0.00     0.007 C 
ATOM      8  C   UNL     1      16.516  -7.470  -8.834  1.00  0.00     0.007 C 
ATOM      9  C   UNL     1      14.343  -7.366 -10.082  1.00  0.00     0.007 C 
ATOM     10  C   UNL     1      16.499  -7.624 -11.337  1.00  0.00     0.007 C 
ENDROOT
TORSDOF 0
BEGIN_RES MET A 624
REMARK  4 active torsions:
REMARK  status: ('A' for Active; 'I' for Inactive)
REMARK    1  A    between atoms: CA   and  CB  
REMARK    2  A    between atoms: CB   and  CG  
REMARK    3  A    between atoms: CG   and  SD  
REMARK    4  A    between atoms: SD   and  CE  
ROOT
ATOM      1  CA  MET A 624      14.156  -1.311 -16.529  1.00 37.55     0.090 C 
ENDROOT
BRANCH   1   2
ATOM      2  CB  MET A 624      14.290  -0.416 -17.759  1.00 35.24    -0.030 C 
ATOM      3  HB2 MET A 624      15.003  -0.850 -18.499  1.00  0.00     0.037 H 
ATOM      4  HB1 MET A 624      13.362  -0.435 -18.376  1.00  0.00     0.037 H 
BRANCH   2   5
ATOM      5  CG  MET A 624      14.677   1.007 -17.389  1.00 41.56    -0.021 C 
ATOM      6  HG2 MET A 624      15.724   1.214 -17.714  1.00  0.00     0.049 H 
ATOM      7  HG1 MET A 624      14.792   1.095 -16.284  1.00  0.00     0.049 H 
BRANCH   5   8
ATOM      8  SD  MET A 624      13.577   2.293 -17.998  1.00 46.36    -0.173 SA
BRANCH   8   9
ATOM      9  CE  MET A 624      14.637   3.147 -19.161  1.00 43.21    -0.035 C 
ATOM     10  HE3 MET A 624      15.699   2.805 -19.177  1.00  0.00     0.041 H 
ATOM     11  HE1 MET A 624      14.484   4.210 -18.861  1.00  0.00     0.041 H 
ATOM     12  HE2 MET A 624      14.443   2.922 -20.236  1.00  0.00     0.041 H 
ENDBRANCH   8   9
ENDBRANCH   5   8
ENDBRANCH   2   5
ENDBRANCH   1   2
END_RES MET A 624
BEGIN_RES LEU A 625
REMARK  4 active torsions:
REMARK  status: ('A' for Active; 'I' for Inactive)
REMARK    5  A    between atoms: CA   and  CB  
REMARK    6  A    between atoms: CB   and  CG  
REMARK    7  A    between atoms: CG   and  CD1 
REMARK    8  A    between atoms: CG   and  CD2 
ROOT
ATOM     13  CA  LEU A 625      17.135  -3.624 -16.776  1.00 49.20     0.089 C 
ENDROOT
BRANCH  13  14
ATOM     14  CB  LEU A 625      17.051  -5.150 -16.753  1.00 47.95    -0.035 C 
ATOM     15  HB2 LEU A 625      16.526  -5.505 -17.670  1.00  0.00     0.037 H 
ATOM     16  HB1 LEU A 625      18.067  -5.578 -16.916  1.00  0.00     0.037 H 
BRANCH  14  17
ATOM     17  CG  LEU A 625      16.420  -5.800 -15.526  1.00 41.83    -0.059 C 
ATOM     18  HG  LEU A 625      15.701  -5.081 -15.067  1.00  0.00     0.038 H 
BRANCH  17  19
ATOM     19  CD1 LEU A 625      15.665  -7.038 -15.955  1.00 45.22    -0.073 C 
ATOM     20 3HD1 LEU A 625      15.510  -7.754 -15.114  1.00  0.00     0.028 H 
ATOM     21 2HD1 LEU A 625      14.593  -6.825 -16.179  1.00  0.00     0.028 H 
ATOM     22 1HD1 LEU A 625      16.193  -7.506 -16.819  1.00  0.00     0.028 H 
ENDBRANCH  17  19
BRANCH  17  23
ATOM     23  CD2 LEU A 625      17.489  -6.141 -14.505  1.00 48.58    -0.073 C 
ATOM     24 1HD2 LEU A 625      18.164  -6.934 -14.904  1.00  0.00     0.028 H 
ATOM     25 3HD2 LEU A 625      18.057  -5.238 -14.179  1.00  0.00     0.028 H 
ATOM     26 2HD2 LEU A 625      17.051  -6.424 -13.520  1.00  0.00     0.028 H 
ENDBRANCH  17  23
ENDBRANCH  14  17
ENDBRANCH  13  14
END_RES LEU A 625
BEGIN_RES CYS A 673
REMARK  1 active torsions:
REMARK  status: ('A' for Active; 'I' for Inactive)
REMARK    9  A    between atoms: CA   and  CB  
ROOT
ATOM     27  CA  CYS A 673       6.053  10.339  -6.366  1.00 37.53     0.098 C 
ENDROOT
BRANCH  27  28
ATOM     28  CB  CYS A 673       6.430   9.481  -5.160  1.00 34.59     0.013 C 
ATOM     29  SG  CYS A 673       5.023   8.523  -4.527  1.00 37.22    -0.095 SA
ATOM     30  HB1 CYS A 673       7.296   8.818  -5.393  1.00  0.00     0.053 H 
ATOM     31  HB2 CYS A 673       6.891  10.099  -4.355  1.00  0.00     0.053 H 
ENDBRANCH  27  28
END_RES CYS A 673
ENDMDL
MODEL 5
REMARK VINA RESULT:    -5.699      0.033      2.111
REMARK INTER + INTRA:          -3.884
REMARK INTER:                  -5.042
REMARK INTRA:                   1.158
REMARK UNBOUND:                 1.816
REMARK SMILES C1C2CC3CC1CC(C2)C3
REMARK SMILES IDX 2 1 6 2 4 3 8 4 1 5 3 6 9 7 5 8 7 9 10 10
REMARK H PARENT
ROOT
ATOM      1  C   UNL     1      15.106  -7.044 -11.347  1.00  0.00    -0.010 C 
ATOM      2  C   UNL     1      15.135  -6.877  -8.831  1.00  0.00    -0.010 C 
ATOM      3  C   UNL     1      15.971  -4.954 -10.232  1.00  0.00    -0.010 C 
ATOM      4  C   UNL     1      17.301  -7.093 -10.105  1.00  0.00    -0.010 C 
ATOM      5  C   UNL     1      14.371  -7.423 -10.050  1.00  0.00     0.007 C 
ATOM      6  C   UNL     1      15.203  -5.511 -11.443  1.00  0.00     0.007 C 
ATOM      7  C   UNL     1      16.525  -7.639 -11.316  1.00  0.00     0.007 C 
ATOM      8  C   UNL     1      15.231  -5.345  -8.941  1.00  0.00     0.007 C 
ATOM      9  C   UNL     1      16.554  -7.473  -8.814  1.00  0.00     0.007 C 
ATOM     10  C   UNL     1      17.385  -5.560 -10.207  1.00  0.00     0.007 C 
ENDROOT
TORSDOF 0
BEGIN_RES MET A 624
REMARK  4 active torsions:
REMARK  status: ('A' for Active; 'I' for Inactive)
REMARK    1  A    between atoms: CA   and  CB  
REMARK    2  A    between atoms: CB   and  CG  
REMARK    3  A    between atoms: CG   and  SD  
REMARK    4  A    between atoms: SD   and  CE  
ROOT
ATOM      1  CA  MET A 624      14.156  -1.311 -16.529  1.00 37.55     0.090 C 
ENDROOT
BRANCH   1   2
ATOM      2  CB  MET A 624      14.290  -0.416 -17.759  1.00 35.24    -0.030 C 
ATOM      3  HB2 MET A 624      15.015  -0.842 -18.492  1.00  0.00     0.037 H 
ATOM      4  HB1 MET A 624      13.368  -0.447 -18.384  1.00  0.00     0.037 H 
BRANCH   2   5
ATOM      5  CG  MET A 624      14.656   1.012 -17.388  1.00 41.56    -0.021 C 
ATOM      6  HG2 MET A 624      15.703   1.232 -17.703  1.00  0.00     0.049 H 
ATOM      7  HG1 MET A 624      14.760   1.103 -16.282  1.00  0.00     0.049 H 
BRANCH   5   8
ATOM      8  SD  MET A 624      13.546   2.284 -18.009  1.00 46.36    -0.173 SA
BRANCH   8   9
ATOM      9  CE  MET A 624      14.610   3.153 -19.158  1.00 43.21    -0.035 C 
ATOM     10  HE3 MET A 624      15.067   4.091 -18.766  1.00  0.00     0.041 H 
ATOM     11  HE1 MET A 624      13.930   3.283 -20.033  1.00  0.00     0.041 H 
ATOM     12  HE2 MET A 624      15.581   2.652 -19.380  1.00  0.00     0.041 H 
ENDBRANCH   8   9
ENDBRANCH   5   8
ENDBRANCH   2   5
ENDBRANCH   1   2
END_RES MET A 624
BEGIN_RES LEU A 625
REMARK  4 active torsions:
REMARK  status: ('A' for Active; 'I' for Inactive)
REMARK    5  A    between atoms: CA   and  CB  
REMARK    6  A    between atoms: CB   and  CG  
REMARK    7  A    between atoms: CG   and  CD1 
REMARK    8  A    between atoms: CG   and  CD2 
ROOT
ATOM     13  CA  LEU A 625      17.135  -3.624 -16.776  1.00 49.20     0.089 C 
ENDROOT
BRANCH  13  14
ATOM     14  CB  LEU A 625      17.051  -5.150 -16.753  1.00 47.95    -0.035 C 
ATOM     15  HB2 LEU A 625      16.515  -5.504 -17.664  1.00  0.00     0.037 H 
ATOM     16  HB1 LEU A 625      18.065  -5.578 -16.929  1.00  0.00     0.037 H 
BRANCH  14  17
ATOM     17  CG  LEU A 625      16.435  -5.801 -15.519  1.00 41.83    -0.059 C 
ATOM     18  HG  LEU A 625      15.730  -5.078 -15.045  1.00  0.00     0.038 H 
BRANCH  17  19
ATOM     19  CD1 LEU A 625      15.663  -7.031 -15.941  1.00 45.22    -0.073 C 
ATOM     20 3HD1 LEU A 625      14.671  -7.103 -15.435  1.00  0.00     0.028 H 
ATOM     21 2HD1 LEU A 625      15.298  -6.962 -16.993  1.00  0.00     0.028 H 
ATOM     22 1HD1 LEU A 625      16.294  -7.934 -15.770  1.00  0.00     0.028 H 
ENDBRANCH  17  19
BRANCH  17  23
ATOM     23  CD2 LEU A 625      17.519  -6.155 -14.518  1.00 48.58    -0.073 C 
ATOM     24 1HD2 LEU A 625      17.836  -5.246 -13.955  1.00  0.00     0.028 H 
ATOM     25 3HD2 LEU A 625      17.202  -6.978 -13.834  1.00  0.00     0.028 H 
ATOM     26 2HD2 LEU A 625      18.382  -6.668 -15.002  1.00  0.00     0.028 H 
ENDBRANCH  17  23
ENDBRANCH  14  17
ENDBRANCH  13  14
END_RES LEU A 625
BEGIN_RES CYS A 673
REMARK  1 active torsions:
REMARK  status: ('A' for Active; 'I' for Inactive)
REMARK    9  A    between atoms: CA   and  CB  
ROOT
ATOM     27  CA  CYS A 673       6.053  10.339  -6.366  1.00 37.53     0.098 C 
ENDROOT
BRANCH  27  28
ATOM     28  CB  CYS A 673       6.430   9.481  -5.160  1.00 34.59     0.013 C 
ATOM     29  SG  CYS A 673       5.017   8.544  -4.509  1.00 37.22    -0.095 SA
ATOM     30  HB1 CYS A 673       7.285   8.806  -5.398  1.00  0.00     0.053 H 
ATOM     31  HB2 CYS A 673       6.906  10.096  -4.362  1.00  0.00     0.053 H 
ENDBRANCH  27  28
END_RES CYS A 673
ENDMDL
MODEL 6
REMARK VINA RESULT:    -5.699      0.065      1.815
REMARK INTER + INTRA:          -3.883
REMARK INTER:                  -5.037
REMARK INTRA:                   1.154
REMARK UNBOUND:                 1.816
REMARK SMILES C1C2CC3CC1CC(C2)C3
REMARK SMILES IDX 2 1 6 2 4 3 8 4 1 5 3 6 9 7 5 8 7 9 10 10
REMARK H PARENT
ROOT
ATOM      1  C   UNL     1      15.124  -7.051 -11.363  1.00  0.00    -0.010 C 
ATOM      2  C   UNL     1      15.964  -4.922 -10.304  1.00  0.00    -0.010 C 
ATOM      3  C   UNL     1      17.326  -7.038 -10.132  1.00  0.00    -0.010 C 
ATOM      4  C   UNL     1      15.164  -6.822  -8.851  1.00  0.00    -0.010 C 
ATOM      5  C   UNL     1      15.198  -5.521 -11.497  1.00  0.00     0.007 C 
ATOM      6  C   UNL     1      16.552  -7.625 -11.326  1.00  0.00     0.007 C 
ATOM      7  C   UNL     1      14.402  -7.410 -10.052  1.00  0.00     0.007 C 
ATOM      8  C   UNL     1      17.387  -5.507 -10.273  1.00  0.00     0.007 C 
ATOM      9  C   UNL     1      15.237  -5.292  -8.999  1.00  0.00     0.007 C 
ATOM     10  C   UNL     1      16.591  -7.396  -8.828  1.00  0.00     0.007 C 
ENDROOT
TORSDOF 0
BEGIN_RES MET A 624
REMARK  4 active torsions:
REMARK  status: ('A' for Active; 'I' for Inactive)
REMARK    1  A    between atoms: CA   and  CB  
REMARK    2  A    between atoms: CB   and  CG  
REMARK    3  A    between atoms: CG   and  SD  
REMARK    4  A    between atoms: SD   and  CE  
ROOT
ATOM      1  CA  MET A 624      14.156  -1.311 -16.529  1.00 37.55     0.090 C 
ENDROOT
BRANCH   1   2
ATOM      2  CB  MET A 624      14.290  -0.416 -17.759  1.00 35.24    -0.030 C 
ATOM      3  HB2 MET A 624      15.007  -0.847 -18.496  1.00  0.00     0.037 H 
ATOM      4  HB1 MET A 624      13.364  -0.440 -18.379  1.00  0.00     0.037 H 
BRANCH   2   5
ATOM      5  CG  MET A 624      14.669   1.009 -17.388  1.00 41.56    -0.021 C 
ATOM      6  HG2 MET A 624      15.714   1.223 -17.715  1.00  0.00     0.049 H 
ATOM      7  HG1 MET A 624      14.785   1.097 -16.283  1.00  0.00     0.049 H 
BRANCH   5   8
ATOM      8  SD  MET A 624      13.560   2.289 -17.995  1.00 46.36    -0.173 SA
BRANCH   8   9
ATOM      9  CE  MET A 624      14.634   3.192 -19.107  1.00 43.21    -0.035 C 
ATOM     10  HE3 MET A 624      14.189   4.108 -19.559  1.00  0.00     0.041 H 
ATOM     11  HE1 MET A 624      14.923   2.395 -19.832  1.00  0.00     0.041 H 
ATOM     12  HE2 MET A 624      15.486   3.723 -18.620  1.00  0.00     0.041 H 
ENDBRANCH   8   9
ENDBRANCH   5   8
ENDBRANCH   2   5
ENDBRANCH   1   2
END_RES MET A 624
BEGIN_RES LEU A 625
REMARK  4 active torsions:
REMARK  status: ('A' for Active; 'I' for Inactive)
REMARK    5  A    between atoms: CA   and  CB  
REMARK    6  A    between atoms: CB   and  CG  
REMARK    7  A    between atoms: CG   and  CD1 
REMARK    8  A    between atoms: CG   and  CD2 
ROOT
ATOM     13  CA  LEU A 625      17.135  -3.624 -16.776  1.00 49.20     0.089 C 
ENDROOT
BRANCH  13  14
ATOM     14  CB  LEU A 625      17.051  -5.150 -16.753  1.00 47.95    -0.035 C 
ATOM     15  HB2 LEU A 625      16.510  -5.504 -17.662  1.00  0.00     0.037 H 
ATOM     16  HB1 LEU A 625      18.064  -5.578 -16.934  1.00  0.00     0.037 H 
BRANCH  14  17
ATOM     17  CG  LEU A 625      16.441  -5.801 -15.516  1.00 41.83    -0.059 C 
ATOM     18  HG  LEU A 625      15.739  -5.078 -15.037  1.00  0.00     0.038 H 
BRANCH  17  19
ATOM     19  CD1 LEU A 625      15.665  -7.029 -15.935  1.00 45.22    -0.073 C 
ATOM     20 3HD1 LEU A 625      14.832  -6.786 -16.637  1.00  0.00     0.028 H 
ATOM     21 2HD1 LEU A 625      16.253  -7.692 -16.614  1.00  0.00     0.028 H 
ATOM     22 1HD1 LEU A 625      15.309  -7.565 -15.024  1.00  0.00     0.028 H 
ENDBRANCH  17  19
BRANCH  17  23
ATOM     23  CD2 LEU A 625      17.529  -6.158 -14.521  1.00 48.58    -0.073 C 
ATOM     24 1HD2 LEU A 625      18.155  -6.992 -14.917  1.00  0.00     0.028 H 
ATOM     25 3HD2 LEU A 625      18.145  -5.271 -14.241  1.00  0.00     0.028 H 
ATOM     26 2HD2 LEU A 625      17.113  -6.392 -13.514  1.00  0.00     0.028 H 
ENDBRANCH  17  23
ENDBRANCH  14  17
ENDBRANCH  13  14
END_RES LEU A 625
BEGIN_RES CYS A 673
REMARK  1 active torsions:
REMARK  status: ('A' for Active; 'I' for Inactive)
REMARK    9  A    between atoms: CA   and  CB  
ROOT
ATOM     27  CA  CYS A 673       6.053  10.339  -6.366  1.00 37.53     0.098 C 
ENDROOT
BRANCH  27  28
ATOM     28  CB  CYS A 673       6.430   9.481  -5.160  1.00 34.59     0.013 C 
ATOM     29  SG  CYS A 673       5.016   8.546  -4.508  1.00 37.22    -0.095 SA
ATOM     30  HB1 CYS A 673       7.284   8.805  -5.399  1.00  0.00     0.053 H 
ATOM     31  HB2 CYS A 673       6.908  10.096  -4.363  1.00  0.00     0.053 H 
ENDBRANCH  27  28
END_RES CYS A 673
ENDMDL
MODEL 7
REMARK VINA RESULT:    -5.695      0.057      1.817
REMARK INTER + INTRA:          -3.880
REMARK INTER:                  -5.029
REMARK INTRA:                   1.149
REMARK UNBOUND:                 1.816
REMARK SMILES C1C2CC3CC1CC(C2)C3
REMARK SMILES IDX 2 1 6 2 4 3 8 4 1 5 3 6 9 7 5 8 7 9 10 10
REMARK H PARENT
ROOT
ATOM      1  C   UNL     1      17.319  -7.080 -10.080  1.00  0.00    -0.010 C 
ATOM      2  C   UNL     1      15.134  -6.885  -8.835  1.00  0.00    -0.010 C 
ATOM      3  C   UNL     1      15.139  -7.094 -11.349  1.00  0.00    -0.010 C 
ATOM      4  C   UNL     1      15.949  -4.970 -10.259  1.00  0.00    -0.010 C 
ATOM      5  C   UNL     1      16.563  -7.453  -8.792  1.00  0.00     0.007 C 
ATOM      6  C   UNL     1      16.569  -7.661 -11.292  1.00  0.00     0.007 C 
ATOM      7  C   UNL     1      17.374  -5.547 -10.207  1.00  0.00     0.007 C 
ATOM      8  C   UNL     1      14.396  -7.467 -10.054  1.00  0.00     0.007 C 
ATOM      9  C   UNL     1      15.201  -5.353  -8.969  1.00  0.00     0.007 C 
ATOM     10  C   UNL     1      15.207  -5.562 -11.469  1.00  0.00     0.007 C 
ENDROOT
TORSDOF 0
BEGIN_RES MET A 624
REMARK  4 active torsions:
REMARK  status: ('A' for Active; 'I' for Inactive)
REMARK    1  A    between atoms: CA   and  CB  
REMARK    2  A    between atoms: CB   and  CG  
REMARK    3  A    between atoms: CG   and  SD  
REMARK    4  A    between atoms: SD   and  CE  
ROOT
ATOM      1  CA  MET A 624      14.156  -1.311 -16.529  1.00 37.55     0.090 C 
ENDROOT
BRANCH   1   2
ATOM      2  CB  MET A 624      14.290  -0.416 -17.759  1.00 35.24    -0.030 C 
ATOM      3  HB2 MET A 624      15.005  -0.848 -18.498  1.00  0.00     0.037 H 
ATOM      4  HB1 MET A 624      13.363  -0.437 -18.377  1.00  0.00     0.037 H 
BRANCH   2   5
ATOM      5  CG  MET A 624      14.674   1.008 -17.389  1.00 41.56    -0.021 C 
ATOM      6  HG2 MET A 624      15.720   1.218 -17.714  1.00  0.00     0.049 H 
ATOM      7  HG1 MET A 624      14.789   1.096 -16.284  1.00  0.00     0.049 H 
BRANCH   5   8
ATOM      8  SD  MET A 624      13.570   2.291 -17.998  1.00 46.36    -0.173 SA
BRANCH   8   9
ATOM      9  CE  MET A 624      14.637   3.164 -19.141  1.00 43.21    -0.035 C 
ATOM     10  HE3 MET A 624      15.656   2.730 -19.267  1.00  0.00     0.041 H 
ATOM     11  HE1 MET A 624      14.609   4.198 -18.724  1.00  0.00     0.041 H 
ATOM     12  HE2 MET A 624      14.355   3.076 -20.216  1.00  0.00     0.041 H 
ENDBRANCH   8   9
ENDBRANCH   5   8
ENDBRANCH   2   5
ENDBRANCH   1   2
END_RES MET A 624
BEGIN_RES LEU A 625
REMARK  4 active torsions:
REMARK  status: ('A' for Active; 'I' for Inactive)
REMARK    5  A    between atoms: CA   and  CB  
REMARK    6  A    between atoms: CB   and  CG  
REMARK    7  A    between atoms: CG   and  CD1 
REMARK    8  A    between atoms: CG   and  CD2 
ROOT
ATOM     13  CA  LEU A 625      17.135  -3.624 -16.776  1.00 49.20     0.089 C 
ENDROOT
BRANCH  13  14
ATOM     14  CB  LEU A 625      17.051  -5.150 -16.753  1.00 47.95    -0.035 C 
ATOM     15  HB2 LEU A 625      16.528  -5.505 -17.672  1.00  0.00     0.037 H 
ATOM     16  HB1 LEU A 625      18.068  -5.578 -16.914  1.00  0.00     0.037 H 
BRANCH  14  17
ATOM     17  CG  LEU A 625      16.417  -5.800 -15.528  1.00 41.83    -0.059 C 
ATOM     18  HG  LEU A 625      15.697  -5.081 -15.070  1.00  0.00     0.038 H 
BRANCH  17  19
ATOM     19  CD1 LEU A 625      15.662  -7.038 -15.959  1.00 45.22    -0.073 C 
ATOM     20 3HD1 LEU A 625      15.868  -7.912 -15.297  1.00  0.00     0.028 H 
ATOM     21 2HD1 LEU A 625      14.566  -6.953 -15.770  1.00  0.00     0.028 H 
ATOM     22 1HD1 LEU A 625      15.894  -7.252 -17.028  1.00  0.00     0.028 H 
ENDBRANCH  17  19
BRANCH  17  23
ATOM     23  CD2 LEU A 625      17.484  -6.141 -14.505  1.00 48.58    -0.073 C 
ATOM     24 1HD2 LEU A 625      17.560  -7.247 -14.381  1.00  0.00     0.028 H 
ATOM     25 3HD2 LEU A 625      18.468  -5.682 -14.760  1.00  0.00     0.028 H 
ATOM     26 2HD2 LEU A 625      17.310  -5.625 -13.532  1.00  0.00     0.028 H 
ENDBRANCH  17  23
ENDBRANCH  14  17
ENDBRANCH  13  14
END_RES LEU A 625
BEGIN_RES CYS A 673
REMARK  1 active torsions:
REMARK  status: ('A' for Active; 'I' for Inactive)
REMARK    9  A    between atoms: CA   and  CB  
ROOT
ATOM     27  CA  CYS A 673       6.053  10.339  -6.366  1.00 37.53     0.098 C 
ENDROOT
BRANCH  27  28
ATOM     28  CB  CYS A 673       6.430   9.481  -5.160  1.00 34.59     0.013 C 
ATOM     29  SG  CYS A 673       5.023   8.524  -4.526  1.00 37.22    -0.095 SA
ATOM     30  HB1 CYS A 673       7.296   8.818  -5.393  1.00  0.00     0.053 H 
ATOM     31  HB2 CYS A 673       6.891  10.099  -4.355  1.00  0.00     0.053 H 
ENDBRANCH  27  28
END_RES CYS A 673
ENDMDL
MODEL 8
REMARK VINA RESULT:    -5.687      0.064      2.111
REMARK INTER + INTRA:          -3.872
REMARK INTER:                  -5.020
REMARK INTRA:                   1.148
REMARK UNBOUND:                 1.816
REMARK SMILES C1C2CC3CC1CC(C2)C3
REMARK SMILES IDX 2 1 6 2 4 3 8 4 1 5 3 6 9 7 5 8 7 9 10 10
REMARK H PARENT
ROOT
ATOM      1  C   UNL     1      17.311  -7.069 -10.078  1.00  0.00    -0.010 C 
ATOM      2  C   UNL     1      15.930  -4.967 -10.265  1.00  0.00    -0.010 C 
ATOM      3  C   UNL     1      15.150  -6.863  -8.796  1.00  0.00    -0.010 C 
ATOM      4  C   UNL     1      15.108  -7.113 -11.304  1.00  0.00    -0.010 C 
ATOM      5  C   UNL     1      17.358  -5.539 -10.231  1.00  0.00     0.007 C 
ATOM      6  C   UNL     1      16.582  -7.424  -8.770  1.00  0.00     0.007 C 
ATOM      7  C   UNL     1      16.540  -7.672 -11.266  1.00  0.00     0.007 C 
ATOM      8  C   UNL     1      15.209  -5.334  -8.956  1.00  0.00     0.007 C 
ATOM      9  C   UNL     1      15.167  -5.582 -11.451  1.00  0.00     0.007 C 
ATOM     10  C   UNL     1      14.391  -7.467  -9.990  1.00  0.00     0.007 C 
ENDROOT
TORSDOF 0
BEGIN_RES MET A 624
REMARK  4 active torsions:
REMARK  status: ('A' for Active; 'I' for Inactive)
REMARK    1  A    between atoms: CA   and  CB  
REMARK    2  A    between atoms: CB   and  CG  
REMARK    3  A    between atoms: CG   and  SD  
REMARK    4  A    between atoms: SD   and  CE  
ROOT
ATOM      1  CA  MET A 624      14.156  -1.311 -16.529  1.00 37.55     0.090 C 
ENDROOT
BRANCH   1   2
ATOM      2  CB  MET A 624      14.290  -0.416 -17.759  1.00 35.24    -0.030 C 
ATOM      3  HB2 MET A 624      15.015  -0.841 -18.492  1.00  0.00     0.037 H 
ATOM      4  HB1 MET A 624      13.368  -0.448 -18.384  1.00  0.00     0.037 H 
BRANCH   2   5
ATOM      5  CG  MET A 624      14.655   1.012 -17.387  1.00 41.56    -0.021 C 
ATOM      6  HG2 MET A 624      15.702   1.233 -17.704  1.00  0.00     0.049 H 
ATOM      7  HG1 MET A 624      14.760   1.104 -16.282  1.00  0.00     0.049 H 
BRANCH   5   8
ATOM      8  SD  MET A 624      13.544   2.283 -18.008  1.00 46.36    -0.173 SA
BRANCH   8   9
ATOM      9  CE  MET A 624      14.614   3.174 -19.133  1.00 43.21    -0.035 C 
ATOM     10  HE3 MET A 624      15.498   3.663 -18.662  1.00  0.00     0.041 H 
ATOM     11  HE1 MET A 624      13.892   3.867 -19.624  1.00  0.00     0.041 H 
ATOM     12  HE2 MET A 624      15.210   2.537 -19.828  1.00  0.00     0.041 H 
ENDBRANCH   8   9
ENDBRANCH   5   8
ENDBRANCH   2   5
ENDBRANCH   1   2
END_RES MET A 624
BEGIN_RES LEU A 625
REMARK  4 active torsions:
REMARK  status: ('A' for Active; 'I' for Inactive)
REMARK    5  A    between atoms: CA   and  CB  
REMARK    6  A    between atoms: CB   and  CG  
REMARK    7  A    between atoms: CG   and  CD1 
REMARK    8  A    between atoms: CG   and  CD2 
ROOT
ATOM     13  CA  LEU A 625      17.135  -3.624 -16.776  1.00 49.20     0.089 C 
ENDROOT
BRANCH  13  14
ATOM     14  CB  LEU A 625      17.051  -5.150 -16.753  1.00 47.95    -0.035 C 
ATOM     15  HB2 LEU A 625      16.545  -5.506 -17.680  1.00  0.00     0.037 H 
ATOM     16  HB1 LEU A 625      18.071  -5.578 -16.895  1.00  0.00     0.037 H 
BRANCH  14  17
ATOM     17  CG  LEU A 625      16.395  -5.799 -15.538  1.00 41.83    -0.059 C 
ATOM     18  HG  LEU A 625      15.664  -5.081 -15.098  1.00  0.00     0.038 H 
BRANCH  17  19
ATOM     19  CD1 LEU A 625      15.655  -7.041 -15.981  1.00 45.22    -0.073 C 
ATOM     20 3HD1 LEU A 625      16.213  -7.976 -15.739  1.00  0.00     0.028 H 
ATOM     21 2HD1 LEU A 625      14.747  -7.236 -15.363  1.00  0.00     0.028 H 
ATOM     22 1HD1 LEU A 625      15.418  -6.957 -17.067  1.00  0.00     0.028 H 
ENDBRANCH  17  19
BRANCH  17  23
ATOM     23  CD2 LEU A 625      17.443  -6.133 -14.493  1.00 48.58    -0.073 C 
ATOM     24 1HD2 LEU A 625      17.389  -7.214 -14.225  1.00  0.00     0.028 H 
ATOM     25 3HD2 LEU A 625      18.467  -5.836 -14.820  1.00  0.00     0.028 H 
ATOM     26 2HD2 LEU A 625      17.361  -5.476 -13.596  1.00  0.00     0.028 H 
ENDBRANCH  17  23
ENDBRANCH  14  17
ENDBRANCH  13  14
END_RES LEU A 625
BEGIN_RES CYS A 673
REMARK  1 active torsions:
REMARK  status: ('A' for Active; 'I' for Inactive)
REMARK    9  A    between atoms: CA   and  CB  
ROOT
ATOM     27  CA  CYS A 673       6.053  10.339  -6.366  1.00 37.53     0.098 C 
ENDROOT
BRANCH  27  28
ATOM     28  CB  CYS A 673       6.430   9.481  -5.160  1.00 34.59     0.013 C 
ATOM     29  SG  CYS A 673       5.020   8.535  -4.517  1.00 37.22    -0.095 SA
ATOM     30  HB1 CYS A 673       7.290   8.811  -5.396  1.00  0.00     0.053 H 
ATOM     31  HB2 CYS A 673       6.899  10.097  -4.359  1.00  0.00     0.053 H 
ENDBRANCH  27  28
END_RES CYS A 673
ENDMDL
MODEL 9
REMARK VINA RESULT:    -5.452      1.309      2.293
REMARK INTER + INTRA:          -3.637
REMARK INTER:                  -5.452
REMARK INTRA:                   1.816
REMARK UNBOUND:                 1.816
REMARK SMILES C1C2CC3CC1CC(C2)C3
REMARK SMILES IDX 2 1 6 2 4 3 8 4 1 5 3 6 9 7 5 8 7 9 10 10
REMARK H PARENT
ROOT
ATOM      1  C   UNL     1      14.844  -5.546 -11.804  1.00  0.00    -0.010 C 
ATOM      2  C   UNL     1      16.798  -4.471 -12.980  1.00  0.00    -0.010 C 
ATOM      3  C   UNL     1      17.008  -6.813 -12.068  1.00  0.00    -0.010 C 
ATOM      4  C   UNL     1      16.881  -4.852 -10.489  1.00  0.00    -0.010 C 
ATOM      5  C   UNL     1      15.265  -4.602 -12.943  1.00  0.00     0.007 C 
ATOM      6  C   UNL     1      15.474  -6.931 -12.035  1.00  0.00     0.007 C 
ATOM      7  C   UNL     1      15.348  -4.980 -10.465  1.00  0.00     0.007 C 
ATOM      8  C   UNL     1      17.418  -5.862 -13.206  1.00  0.00     0.007 C 
ATOM      9  C   UNL     1      17.291  -3.911 -11.635  1.00  0.00     0.007 C 
ATOM     10  C   UNL     1      17.500  -6.239 -10.728  1.00  0.00     0.007 C 
ENDROOT
TORSDOF 0
BEGIN_RES MET A 624
REMARK  4 active torsions:
REMARK  status: ('A' for Active; 'I' for Inactive)
REMARK    1  A    between atoms: CA   and  CB  
REMARK    2  A    between atoms: CB   and  CG  
REMARK    3  A    between atoms: CG   and  SD  
REMARK    4  A    between atoms: SD   and  CE  
ROOT
ATOM      1  CA  MET A 624      14.156  -1.311 -16.529  1.00 37.55     0.090 C 
ENDROOT
BRANCH   1   2
ATOM      2  CB  MET A 624      14.290  -0.416 -17.759  1.00 35.24    -0.030 C 
ATOM      3  HB2 MET A 624      14.988  -0.859 -18.507  1.00  0.00     0.037 H 
ATOM      4  HB1 MET A 624      13.355  -0.420 -18.366  1.00  0.00     0.037 H 
BRANCH   2   5
ATOM      5  CG  MET A 624      14.702   1.000 -17.391  1.00 41.56    -0.021 C 
ATOM      6  HG2 MET A 624      15.741   1.200 -17.745  1.00  0.00     0.049 H 
ATOM      7  HG1 MET A 624      14.850   1.080 -16.289  1.00  0.00     0.049 H 
BRANCH   5   8
ATOM      8  SD  MET A 624      13.598   2.301 -17.960  1.00 46.36    -0.173 SA
BRANCH   8   9
ATOM      9  CE  MET A 624      14.640   3.164 -19.133  1.00 43.21    -0.035 C 
ATOM     10  HE3 MET A 624      15.723   3.201 -18.870  1.00  0.00     0.041 H 
ATOM     11  HE1 MET A 624      14.131   4.155 -19.194  1.00  0.00     0.041 H 
ATOM     12  HE2 MET A 624      14.790   2.645 -20.108  1.00  0.00     0.041 H 
ENDBRANCH   8   9
ENDBRANCH   5   8
ENDBRANCH   2   5
ENDBRANCH   1   2
END_RES MET A 624
BEGIN_RES LEU A 625
REMARK  4 active torsions:
REMARK  status: ('A' for Active; 'I' for Inactive)
REMARK    5  A    between atoms: CA   and  CB  
REMARK    6  A    between atoms: CB   and  CG  
REMARK    7  A    between atoms: CG   and  CD1 
REMARK    8  A    between atoms: CG   and  CD2 
ROOT
ATOM     13  CA  LEU A 625      17.135  -3.624 -16.776  1.00 49.20     0.089 C 
ENDROOT
BRANCH  13  14
ATOM     14  CB  LEU A 625      17.051  -5.150 -16.753  1.00 47.95    -0.035 C 
ATOM     15  HB2 LEU A 625      17.747  -5.570 -17.516  1.00  0.00     0.037 H 
ATOM     16  HB1 LEU A 625      17.517  -5.531 -15.815  1.00  0.00     0.037 H 
BRANCH  14  17
ATOM     17  CG  LEU A 625      15.673  -5.780 -16.925  1.00 41.83    -0.059 C 
ATOM     18  HG  LEU A 625      14.896  -5.026 -16.655  1.00  0.00     0.038 H 
BRANCH  17  19
ATOM     19  CD1 LEU A 625      15.487  -6.176 -18.373  1.00 45.22    -0.073 C 
ATOM     20 3HD1 LEU A 625      14.857  -5.446 -18.934  1.00  0.00     0.028 H 
ATOM     21 2HD1 LEU A 625      16.424  -6.065 -18.966  1.00  0.00     0.028 H 
ATOM     22 1HD1 LEU A 625      15.077  -7.212 -18.417  1.00  0.00     0.028 H 
ENDBRANCH  17  19
BRANCH  17  23
ATOM     23  CD2 LEU A 625      15.528  -6.981 -16.009  1.00 48.58    -0.073 C 
ATOM     24 1HD2 LEU A 625      15.510  -7.922 -16.606  1.00  0.00     0.028 H 
ATOM     25 3HD2 LEU A 625      16.317  -7.002 -15.221  1.00  0.00     0.028 H 
ATOM     26 2HD2 LEU A 625      14.637  -6.893 -15.345  1.00  0.00     0.028 H 
ENDBRANCH  17  23
ENDBRANCH  14  17
ENDBRANCH  13  14
END_RES LEU A 625
BEGIN_RES CYS A 673
REMARK  1 active torsions:
REMARK  status: ('A' for Active; 'I' for Inactive)
REMARK    9  A    between atoms: CA   and  CB  
ROOT
ATOM     27  CA  CYS A 673       6.053  10.339  -6.366  1.00 37.53     0.098 C 
ENDROOT
BRANCH  27  28
ATOM     28  CB  CYS A 673       6.430   9.481  -5.160  1.00 34.59     0.013 C 
ATOM     29  SG  CYS A 673       5.017   8.543  -4.510  1.00 37.22    -0.095 SA
ATOM     30  HB1 CYS A 673       7.285   8.807  -5.398  1.00  0.00     0.053 H 
ATOM     31  HB2 CYS A 673       6.906  10.096  -4.362  1.00  0.00     0.053 H 
ENDBRANCH  27  28
END_RES CYS A 673
ENDMDL
