REMARK SMILES C1C2CC3CC1CC(C2)C3
REMARK SMILES IDX 2 1 6 2 4 3 8 4 1 5 3 6 9 7 5 8 7 9 10 10
REMARK H PARENT
ROOT
ATOM      1  C   UNL     1      -0.553  -0.616  -1.304  1.00  0.00    -0.010 C 
ATOM      2  C   UNL     1       0.595   1.393  -0.301  1.00  0.00    -0.010 C 
ATOM      3  C   UNL     1       1.101  -0.917   0.576  1.00  0.00    -0.010 C 
ATOM      4  C   UNL     1      -1.143   0.140   1.029  1.00  0.00    -0.010 C 
ATOM      5  C   UNL     1       0.042   0.772  -1.596  1.00  0.00     0.007 C 
ATOM      6  C   UNL     1       0.545  -1.525  -0.724  1.00  0.00     0.007 C 
ATOM      7  C   UNL     1      -1.687  -0.473  -0.273  1.00  0.00     0.007 C 
ATOM      8  C   UNL     1       1.687   0.473   0.273  1.00  0.00     0.007 C 
ATOM      9  C   UNL     1      -0.545   1.525   0.724  1.00  0.00     0.007 C 
ATOM     10  C   UNL     1      -0.042  -0.772   1.596  1.00  0.00     0.007 C 
ENDROOT
TORSDOF 0
