REMARK SMILES CC(C)c1c(C(=O)Nc2ccccc2)c(-c2ccccc2)c(-c2ccc(F)cc2)n1CC[C@@H](O)C[C@@H](O)CC(=O)O
REMARK SMILES IDX 33 1 32 2 31 3 30 4 22 5 15 6 4 7 5 8 23 9 26 10 25 11 28 12
REMARK SMILES IDX 24 13 29 14 27 15 16 16 17 17 21 18 18 19 20 20 19 21 2 22
REMARK SMILES IDX 1 23 3 24 6 25 7 26 8 27 9 29 10 30 14 31 11 32 13 33 12 34
REMARK SMILES IDX 34 35 35 37 36 38 37 39 38 41 39 42 40 43 41 44
REMARK H PARENT 8 28 34 36 37 40 41 45
ROOT
ATOM      1  C   UNL     1       3.985  -1.338   1.863  1.00  0.00     0.118 C 
ENDROOT
BRANCH   1   2
ATOM      2  C   UNL     1       2.483  -1.493   1.626  1.00  0.00     0.053 C 
BRANCH   2   3
ATOM      3  C   UNL     1       1.667  -0.482   2.437  1.00  0.00     0.125 C 
BRANCH   3   4
ATOM      4  N   UNL     1       0.407  -0.158   1.762  1.00  0.00    -0.343 N 
ATOM      5  C   UNL     1       0.227   0.952   0.950  1.00  0.00     0.057 A 
ATOM      6  C   UNL     1      -1.068   0.890   0.458  1.00  0.00     0.021 A 
ATOM      7  C   UNL     1      -0.756  -0.917   1.814  1.00  0.00     0.034 A 
ATOM      8  C   UNL     1      -1.698  -0.281   1.000  1.00  0.00     0.069 A 
BRANCH   5   9
ATOM      9  C   UNL     1       1.244   1.988   0.744  1.00  0.00    -0.001 A 
ATOM     10  C   UNL     1       3.158   3.976   0.357  1.00  0.00     0.123 A 
ATOM     11  C   UNL     1       3.316   2.744  -0.266  1.00  0.00     0.040 A 
ATOM     12  C   UNL     1       2.057   4.235   1.166  1.00  0.00     0.040 A 
ATOM     13  C   UNL     1       2.354   1.749  -0.077  1.00  0.00     0.013 A 
ATOM     14  C   UNL     1       1.098   3.240   1.360  1.00  0.00     0.013 A 
ATOM     15  F   UNL     1       4.080   4.930   0.174  1.00  0.00    -0.207 F 
ENDBRANCH   5   9
BRANCH   6  16
ATOM     16  C   UNL     1      -1.639   1.907  -0.417  1.00  0.00    -0.015 A 
ATOM     17  C   UNL     1      -2.779   2.614  -0.020  1.00  0.00     0.009 A 
ATOM     18  C   UNL     1      -1.085   2.150  -1.681  1.00  0.00     0.009 A 
ATOM     19  C   UNL     1      -3.358   3.552  -0.877  1.00  0.00     0.001 A 
ATOM     20  C   UNL     1      -1.662   3.092  -2.534  1.00  0.00     0.001 A 
ATOM     21  C   UNL     1      -2.799   3.791  -2.132  1.00  0.00     0.000 A 
ENDBRANCH   6  16
BRANCH   7  22
ATOM     22  C   UNL     1      -0.854  -2.194   2.633  1.00  0.00     0.031 C 
ATOM     23  C   UNL     1      -1.415  -3.372   1.835  1.00  0.00     0.014 C 
ATOM     24  C   UNL     1      -1.615  -1.970   3.939  1.00  0.00     0.014 C 
ENDBRANCH   7  22
BRANCH   8  25
ATOM     25  C   UNL     1      -3.078  -0.729   0.757  1.00  0.00     0.258 C 
ATOM     26  O   UNL     1      -3.786  -1.131   1.671  1.00  0.00    -0.269 OA
ATOM     27  N   UNL     1      -3.444  -0.649  -0.573  1.00  0.00    -0.322 N 
ATOM     28  H   UNL     1      -2.733  -0.303  -1.205  1.00  0.00     0.170 HD
BRANCH  27  29
ATOM     29  C   UNL     1      -4.693  -0.943  -1.152  1.00  0.00     0.041 A 
ATOM     30  C   UNL     1      -5.789  -1.433  -0.441  1.00  0.00     0.026 A 
ATOM     31  C   UNL     1      -4.825  -0.716  -2.528  1.00  0.00     0.026 A 
ATOM     32  C   UNL     1      -6.998  -1.692  -1.094  1.00  0.00     0.002 A 
ATOM     33  C   UNL     1      -6.033  -0.975  -3.181  1.00  0.00     0.002 A 
ATOM     34  C   UNL     1      -7.120  -1.463  -2.463  1.00  0.00     0.000 A 
ENDBRANCH  27  29
ENDBRANCH   8  25
ENDBRANCH   3   4
ENDBRANCH   2   3
ENDBRANCH   1   2
BRANCH   1  35
ATOM     35  O   UNL     1       4.239  -1.498   3.261  1.00  0.00    -0.393 OA
ATOM     36  H   UNL     1       5.178  -1.287   3.410  1.00  0.00     0.210 HD
ENDBRANCH   1  35
BRANCH   1  37
ATOM     37  C   UNL     1       4.833  -2.367   1.099  1.00  0.00     0.064 C 
BRANCH  37  38
ATOM     38  C   UNL     1       4.552  -2.446  -0.406  1.00  0.00     0.128 C 
BRANCH  38  39
ATOM     39  O   UNL     1       4.547  -1.122  -0.941  1.00  0.00    -0.392 OA
ATOM     40  H   UNL     1       4.255  -1.198  -1.873  1.00  0.00     0.210 HD
ENDBRANCH  38  39
BRANCH  38  41
ATOM     41  C   UNL     1       5.610  -3.295  -1.115  1.00  0.00     0.154 C 
BRANCH  41  42
ATOM     42  C   UNL     1       5.189  -3.583  -2.529  1.00  0.00     0.305 C 
ATOM     43  O   UNL     1       4.338  -2.980  -3.164  1.00  0.00    -0.252 OA
BRANCH  42  44
ATOM     44  O   UNL     1       5.886  -4.593  -3.079  1.00  0.00    -0.481 OA
ATOM     45  H   UNL     1       5.551  -4.668  -3.998  1.00  0.00     0.296 HD
ENDBRANCH  42  44
ENDBRANCH  41  42
ENDBRANCH  38  41
ENDBRANCH  37  38
ENDBRANCH   1  37
TORSDOF 15
