REMARK SMILES Cn1cc(-c2cc3c(N4CCN(c5ncc([C@@](C)(N)c6ccc(F)cc6)cn5)CC4)ncnn3c2)cn1
REMARK SMILES IDX 14 1 28 2 13 3 16 4 15 5 27 6 17 7 18 8 20 9 23 10 22 11
REMARK SMILES IDX 25 12 21 13 26 14 24 15 19 16 12 19 11 20 29 21 10 22 30 23
REMARK SMILES IDX 9 24 8 25 31 26 7 27 32 28 34 29 6 30 33 31 35 32 5 33 4 34
REMARK SMILES IDX 3 35 36 36 2 37 37 38 1 39
REMARK H PARENT 19 17 19 18
ROOT
ATOM      1  N   UNL     1      -2.424   0.329  -1.517  1.00  0.00    -0.221 NA
ATOM      2  N   UNL     1      -2.985   0.842   0.703  1.00  0.00    -0.221 NA
ATOM      3  C   UNL     1      -2.072   0.594  -0.249  1.00  0.00     0.225 A 
ATOM      4  C   UNL     1      -4.758   0.545  -0.916  1.00  0.00     0.013 A 
ATOM      5  C   UNL     1      -3.743   0.320  -1.822  1.00  0.00     0.122 A 
ATOM      6  C   UNL     1      -4.291   0.820   0.353  1.00  0.00     0.122 A 
ENDROOT
BRANCH   4   7
ATOM      7  C   UNL     1      -6.238   0.582  -1.283  1.00  0.00     0.067 C 
ATOM      8  C   UNL     1      -6.577   2.067  -1.560  1.00  0.00     0.038 C 
BRANCH   7   9
ATOM      9  C   UNL     1      -7.132  -0.073  -0.205  1.00  0.00    -0.024 A 
ATOM     10  C   UNL     1      -8.737  -1.347   1.726  1.00  0.00     0.123 A 
ATOM     11  C   UNL     1      -7.684  -2.041   1.149  1.00  0.00     0.039 A 
ATOM     12  C   UNL     1      -9.006  -0.036   1.362  1.00  0.00     0.039 A 
ATOM     13  C   UNL     1      -6.887  -1.409   0.191  1.00  0.00     0.009 A 
ATOM     14  C   UNL     1      -8.212   0.598   0.401  1.00  0.00     0.009 A 
ATOM     15  F   UNL     1      -9.504  -1.950   2.643  1.00  0.00    -0.207 F 
ENDBRANCH   7   9
BRANCH   7  16
ATOM     16  N   UNL     1      -6.506  -0.116  -2.559  1.00  0.00    -0.318 NA
ATOM     17  H   UNL     1      -7.502  -0.037  -2.770  1.00  0.00     0.120 HD
ATOM     18  H   UNL     1      -6.335  -1.113  -2.438  1.00  0.00     0.120 HD
ENDBRANCH   7  16
ENDBRANCH   4   7
BRANCH   3  19
ATOM     19  N   UNL     1      -0.733   0.589   0.088  1.00  0.00    -0.337 N 
ATOM     20  C   UNL     1       0.253   0.509  -0.988  1.00  0.00     0.141 C 
ATOM     21  C   UNL     1      -0.316   1.227   1.340  1.00  0.00     0.141 C 
ATOM     22  C   UNL     1       1.674   0.272  -0.425  1.00  0.00     0.139 C 
ATOM     23  C   UNL     1       0.971   2.062   1.159  1.00  0.00     0.139 C 
ATOM     24  N   UNL     1       2.079   1.279   0.574  1.00  0.00    -0.351 N 
ATOM     25  C   UNL     1       3.385   1.752   0.672  1.00  0.00     0.156 C 
ATOM     26  N   UNL     1       3.569   2.984   1.062  1.00  0.00    -0.215 NA
ATOM     27  C   UNL     1       4.572   0.988   0.387  1.00  0.00     0.108 A 
ATOM     28  C   UNL     1       4.835   3.502   1.141  1.00  0.00     0.247 C 
ATOM     29  N   UNL     1       5.778   1.621   0.494  1.00  0.00    -0.235 N 
ATOM     30  C   UNL     1       4.822  -0.331   0.055  1.00  0.00     0.042 A 
ATOM     31  N   UNL     1       5.947   2.896   0.869  1.00  0.00    -0.156 NA
ATOM     32  C   UNL     1       6.788   0.753   0.178  1.00  0.00     0.122 A 
ATOM     33  C   UNL     1       6.227  -0.474  -0.094  1.00  0.00     0.005 A 
BRANCH  33  34
ATOM     34  C   UNL     1       6.912  -1.706  -0.455  1.00  0.00     0.021 A 
ATOM     35  C   UNL     1       6.383  -2.952  -0.701  1.00  0.00     0.117 A 
ATOM     36  C   UNL     1       8.301  -1.868  -0.631  1.00  0.00     0.143 A 
ATOM     37  N   UNL     1       7.445  -3.758  -0.997  1.00  0.00    -0.275 N 
ATOM     38  N   UNL     1       8.630  -3.121  -0.964  1.00  0.00    -0.181 NA
ATOM     39  C   UNL     1       7.405  -5.162  -1.325  1.00  0.00     0.173 C 
ENDBRANCH  33  34
ENDBRANCH   3  19
TORSDOF 5
