REMARK SMILES Cn1c(=O)c2c(ncn2C)n(C)c1=O
REMARK SMILES IDX 4 1 14 2 11 3 9 4 2 5 7 6 5 7 6 8 3 9 13 10 8 11 12 12 10 13
REMARK SMILES IDX 1 14
REMARK H PARENT
ROOT
ATOM      1  O   UNL     1       0.457   2.553   0.000  1.00  0.00    -0.267 OA
ATOM      2  O   UNL     1      -3.089  -0.420   0.001  1.00  0.00    -0.247 OA
ATOM      3  N   UNL     1      -0.959  -1.288   0.000  1.00  0.00    -0.279 N 
ATOM      4  N   UNL     1       2.221   0.133   0.000  1.00  0.00    -0.328 N 
ATOM      5  N   UNL     1      -1.339   1.077   0.000  1.00  0.00    -0.261 N 
ATOM      6  N   UNL     1       1.395  -1.932   0.000  1.00  0.00    -0.218 NA
ATOM      7  C   UNL     1       0.862   0.262   0.000  1.00  0.00     0.152 A 
ATOM      8  C   UNL     1       0.388  -1.015   0.000  1.00  0.00     0.167 A 
ATOM      9  C   UNL     1       0.019   1.406   0.000  1.00  0.00     0.282 C 
ATOM     10  C   UNL     1      -1.869  -0.231   0.000  1.00  0.00     0.332 C 
ATOM     11  C   UNL     1       2.497  -1.209   0.000  1.00  0.00     0.202 A 
ATOM     12  C   UNL     1      -1.422  -2.663   0.000  1.00  0.00     0.157 C 
ATOM     13  C   UNL     1       3.189   1.200   0.000  1.00  0.00     0.151 C 
ATOM     14  C   UNL     1      -2.304   2.159   0.000  1.00  0.00     0.159 C 
ENDROOT
TORSDOF 0
