REMARK SMILES CC(C)CCC[C@@H](C)[C@H]1CC[C@H]2[C@@H]3CC=C4C[C@@H](O)CC[C@]4(C)[C@H]3CC[C@]12C
REMARK SMILES IDX 6 1 7 2 8 3 9 4 18 5 17 6 20 7 16 8 21 9 22 10 15 11 24 12
REMARK SMILES IDX 14 13 13 14 25 15 12 16 26 17 27 18 11 19 10 20 23 21 28 22
REMARK SMILES IDX 19 23 5 25 4 26 2 27 1 28 3 29
REMARK H PARENT 19 24
ROOT
ATOM      1  C   UNL     1      -4.794  -1.220  -0.104  1.00  0.00     0.003 C 
ENDROOT
BRANCH   1   2
ATOM      2  C   UNL     1      -3.381  -1.540  -0.660  1.00  0.00    -0.011 C 
ATOM      3  C   UNL     1      -3.360  -1.331  -2.177  1.00  0.00     0.008 C 
BRANCH   2   4
ATOM      4  C   UNL     1      -2.252  -0.763   0.070  1.00  0.00    -0.002 C 
ATOM      5  C   UNL     1       6.209   1.422  -0.191  1.00  0.00     0.118 C 
ATOM      6  C   UNL     1       5.755   0.466   0.913  1.00  0.00     0.063 C 
ATOM      7  C   UNL     1       5.698   0.965  -1.554  1.00  0.00     0.033 C 
ATOM      8  C   UNL     1       4.257   0.251   0.901  1.00  0.00    -0.065 C 
ATOM      9  C   UNL     1       4.177   0.818  -1.555  1.00  0.00     0.014 C 
ATOM     10  C   UNL     1       3.620  -0.124  -0.447  1.00  0.00    -0.008 C 
ATOM     11  C   UNL     1       3.544   0.394   2.032  1.00  0.00    -0.027 C 
ATOM     12  C   UNL     1       2.049   0.051  -0.390  1.00  0.00     0.003 C 
ATOM     13  C   UNL     1       2.066   0.181   2.140  1.00  0.00     0.031 C 
ATOM     14  C   UNL     1       1.455  -0.531   0.923  1.00  0.00     0.000 C 
ATOM     15  C   UNL     1       1.309  -0.464  -1.652  1.00  0.00     0.005 C 
ATOM     16  C   UNL     1      -0.070  -0.373   0.910  1.00  0.00    -0.001 C 
ATOM     17  C   UNL     1      -0.224  -0.376  -1.556  1.00  0.00     0.007 C 
ATOM     18  C   UNL     1      -0.763  -1.065  -0.289  1.00  0.00    -0.026 C 
ATOM     19  C   UNL     1      -0.849  -0.864   2.121  1.00  0.00     0.005 C 
ATOM     20  C   UNL     1      -2.290  -0.983   1.610  1.00  0.00     0.005 C 
ATOM     21  C   UNL     1       4.013  -1.586  -0.771  1.00  0.00     0.016 C 
ATOM     22  C   UNL     1      -0.507  -2.590  -0.359  1.00  0.00     0.012 C 
BRANCH   5  23
ATOM     23  O   UNL     1       7.633   1.474  -0.239  1.00  0.00    -0.393 OA
ATOM     24  H   UNL     1       7.941   1.804   0.623  1.00  0.00     0.210 HD
ENDBRANCH   5  23
ENDBRANCH   2   4
ENDBRANCH   1   2
BRANCH   1  25
ATOM     25  C   UNL     1      -5.232   0.245  -0.235  1.00  0.00     0.001 C 
BRANCH  25  26
ATOM     26  C   UNL     1      -6.656   0.439   0.303  1.00  0.00     0.003 C 
BRANCH  26  27
ATOM     27  C   UNL     1      -7.198   1.880   0.230  1.00  0.00    -0.017 C 
ATOM     28  C   UNL     1      -7.306   2.390  -1.207  1.00  0.00     0.007 C 
ATOM     29  C   UNL     1      -6.383   2.853   1.083  1.00  0.00     0.007 C 
ENDBRANCH  26  27
ENDBRANCH  25  26
ENDBRANCH   1  25
TORSDOF 6
