REMARK SMILES CC(C)Cc1ccc([C@@H](C)C(=O)O)cc1
REMARK SMILES IDX 5 1 8 2 6 3 15 4 7 5 14 6 9 7 10 8 11 9 12 10 13 11 4 13
REMARK SMILES IDX 2 14 1 15 3 16
REMARK H PARENT 13 12
ROOT
ATOM      1  C   UNL     1       1.640   0.726  -0.245  1.00  0.00    -0.048 A 
ATOM      2  C   UNL     1      -1.175   0.578   0.007  1.00  0.00    -0.034 A 
ATOM      3  C   UNL     1       0.854   0.229  -1.291  1.00  0.00     0.004 A 
ATOM      4  C   UNL     1       1.004   1.154   0.926  1.00  0.00     0.004 A 
ATOM      5  C   UNL     1      -0.536   0.155  -1.167  1.00  0.00     0.005 A 
ATOM      6  C   UNL     1      -0.386   1.079   1.052  1.00  0.00     0.005 A 
ENDROOT
BRANCH   2   7
ATOM      7  C   UNL     1      -2.687   0.516   0.163  1.00  0.00     0.126 C 
ATOM      8  C   UNL     1      -3.403   1.367  -0.886  1.00  0.00     0.025 C 
BRANCH   7   9
ATOM      9  C   UNL     1      -3.241  -0.898   0.126  1.00  0.00     0.310 C 
ATOM     10  O   UNL     1      -2.816  -1.860  -0.492  1.00  0.00    -0.252 OA
BRANCH   9  11
ATOM     11  O   UNL     1      -4.372  -1.022   0.856  1.00  0.00    -0.481 OA
ATOM     12  H   UNL     1      -4.621  -1.963   0.735  1.00  0.00     0.296 HD
ENDBRANCH   9  11
ENDBRANCH   7   9
ENDBRANCH   2   7
BRANCH   1  13
ATOM     13  C   UNL     1       3.142   0.802  -0.379  1.00  0.00     0.038 C 
BRANCH  13  14
ATOM     14  C   UNL     1       3.934  -0.438   0.086  1.00  0.00    -0.013 C 
ATOM     15  C   UNL     1       3.773  -0.722   1.580  1.00  0.00     0.008 C 
ATOM     16  C   UNL     1       3.615  -1.689  -0.733  1.00  0.00     0.008 C 
ENDBRANCH  13  14
ENDBRANCH   1  13
TORSDOF 5
