REMARK SMILES Cc1ccc(NC(=O)c2ccc(CN3CCN(C)CC3)cc2)cc1Nc1nccc(-c2cccnc2)n1
REMARK SMILES IDX 8 1 6 2 7 3 9 5 10 6 22 7 11 8 21 9 12 10 13 11 14 12 15 13
REMARK SMILES IDX 20 14 16 15 19 16 17 17 18 18 5 19 23 20 4 21 24 22 3 23
REMARK SMILES IDX 2 24 1 25 25 26 26 28 37 29 27 30 30 31 28 32 29 33 31 34
REMARK SMILES IDX 32 35 36 36 33 37 35 38 34 39
REMARK H PARENT 6 4 25 27
ROOT
ATOM      1  O   UNL     1      -0.914   0.377   1.827  1.00  0.00    -0.269 OA
ATOM      2  N   UNL     1      -0.285  -1.761   1.133  1.00  0.00    -0.322 N 
ATOM      3  C   UNL     1      -0.091  -0.417   1.388  1.00  0.00     0.255 C 
ATOM      4  H   UNL     1       0.543  -2.339   1.067  1.00  0.00     0.170 HD
ENDROOT
BRANCH   3   5
ATOM      5  C   UNL     1       1.291   0.068   1.134  1.00  0.00     0.040 A 
ATOM      6  C   UNL     1       2.010  -0.370   0.017  1.00  0.00     0.014 A 
ATOM      7  C   UNL     1       1.845   1.024   1.992  1.00  0.00     0.014 A 
ATOM      8  C   UNL     1       3.288   0.137  -0.227  1.00  0.00     0.006 A 
ATOM      9  C   UNL     1       3.127   1.523   1.748  1.00  0.00     0.006 A 
ATOM     10  C   UNL     1       3.863   1.080   0.640  1.00  0.00    -0.034 A 
BRANCH  10  11
ATOM     11  C   UNL     1       5.236   1.655   0.348  1.00  0.00     0.120 C 
BRANCH  11  12
ATOM     12  N   UNL     1       6.257   0.626   0.102  1.00  0.00    -0.297 NA
ATOM     13  C   UNL     1       6.604  -0.104   1.342  1.00  0.00     0.100 C 
ATOM     14  C   UNL     1       7.484   1.247  -0.443  1.00  0.00     0.100 C 
ATOM     15  C   UNL     1       7.738  -1.131   1.121  1.00  0.00     0.099 C 
ATOM     16  C   UNL     1       8.615   0.217  -0.666  1.00  0.00     0.099 C 
ATOM     17  N   UNL     1       8.957  -0.506   0.573  1.00  0.00    -0.304 NA
ATOM     18  C   UNL     1       9.988  -1.510   0.319  1.00  0.00     0.105 C 
ENDBRANCH  11  12
ENDBRANCH  10  11
ENDBRANCH   3   5
BRANCH   2  19
ATOM     19  C   UNL     1      -1.523  -2.426   1.022  1.00  0.00     0.043 A 
ATOM     20  C   UNL     1      -2.738  -1.758   0.846  1.00  0.00     0.052 A 
ATOM     21  C   UNL     1      -1.512  -3.820   1.016  1.00  0.00     0.026 A 
ATOM     22  C   UNL     1      -3.951  -2.445   0.656  1.00  0.00     0.046 A 
ATOM     23  C   UNL     1      -2.703  -4.529   0.862  1.00  0.00     0.008 A 
ATOM     24  C   UNL     1      -3.923  -3.857   0.677  1.00  0.00    -0.027 A 
ATOM     25  C   UNL     1      -5.171  -4.674   0.474  1.00  0.00     0.046 C 
BRANCH  22  26
ATOM     26  N   UNL     1      -5.146  -1.770   0.354  1.00  0.00    -0.324 N 
ATOM     27  H   UNL     1      -6.012  -2.269   0.473  1.00  0.00     0.170 HD
BRANCH  26  28
ATOM     28  C   UNL     1      -5.411  -0.504  -0.164  1.00  0.00     0.227 A 
ATOM     29  N   UNL     1      -4.425   0.328  -0.519  1.00  0.00    -0.213 NA
ATOM     30  N   UNL     1      -6.709  -0.205  -0.327  1.00  0.00    -0.221 NA
ATOM     31  C   UNL     1      -4.735   1.529  -1.050  1.00  0.00     0.077 A 
ATOM     32  C   UNL     1      -6.997   0.998  -0.857  1.00  0.00     0.117 A 
ATOM     33  C   UNL     1      -6.045   1.910  -1.242  1.00  0.00     0.049 A 
BRANCH  31  34
ATOM     34  C   UNL     1      -3.584   2.381  -1.384  1.00  0.00     0.019 A 
ATOM     35  C   UNL     1      -2.435   2.402  -0.581  1.00  0.00     0.013 A 
ATOM     36  C   UNL     1      -3.545   3.199  -2.513  1.00  0.00     0.121 A 
ATOM     37  C   UNL     1      -1.343   3.200  -0.913  1.00  0.00     0.021 A 
ATOM     38  N   UNL     1      -2.503   3.996  -2.866  1.00  0.00    -0.264 NA
ATOM     39  C   UNL     1      -1.424   3.973  -2.056  1.00  0.00     0.111 A 
ENDBRANCH  31  34
ENDBRANCH  26  28
ENDBRANCH  22  26
ENDBRANCH   2  19
TORSDOF 7
