REMARK SMILES Cc1cn(-c2cc(NC(=O)c3ccc(C)c(Nc4nccc(-c5cccnc5)n4)c3)cc(C(F)(F)F)c2)cn1
REMARK SMILES IDX 11 1 16 2 14 3 30 4 12 5 13 6 15 7 9 8 8 9 10 10 7 12 32 13
REMARK SMILES IDX 37 14 31 15 5 16 6 17 33 18 34 19 35 20 36 21 4 22 3 23
REMARK SMILES IDX 38 24 2 25 39 26 1 27 17 28 18 30 29 31 19 32 22 33 20 34
REMARK SMILES IDX 21 35 23 36 24 37 28 38 25 39 27 40 26 41
REMARK H PARENT 8 11 17 29
ROOT
ATOM      1  C   UNL     1      -2.099  -2.793  -0.131  1.00  0.00     0.042 A 
ATOM      2  C   UNL     1      -4.155  -1.568   0.376  1.00  0.00     0.045 A 
ATOM      3  C   UNL     1      -4.905  -2.637  -0.160  1.00  0.00    -0.027 A 
ATOM      4  C   UNL     1      -2.756  -1.669   0.385  1.00  0.00     0.040 A 
ATOM      5  C   UNL     1      -2.853  -3.850  -0.644  1.00  0.00     0.014 A 
ATOM      6  C   UNL     1      -4.245  -3.772  -0.659  1.00  0.00     0.006 A 
ATOM      7  C   UNL     1      -6.409  -2.592  -0.220  1.00  0.00     0.046 C 
ENDROOT
BRANCH   1   8
ATOM      8  C   UNL     1      -0.612  -2.926  -0.104  1.00  0.00     0.255 C 
ATOM      9  N   UNL     1       0.093  -1.735  -0.081  1.00  0.00    -0.322 N 
ATOM     10  O   UNL     1      -0.131  -4.053  -0.110  1.00  0.00    -0.269 OA
ATOM     11  H   UNL     1      -0.436  -0.880  -0.191  1.00  0.00     0.170 HD
BRANCH   9  12
ATOM     12  C   UNL     1       1.485  -1.566   0.062  1.00  0.00     0.044 A 
ATOM     13  C   UNL     1       3.765  -2.377   0.293  1.00  0.00     0.060 A 
ATOM     14  C   UNL     1       4.226  -1.052   0.384  1.00  0.00     0.039 A 
ATOM     15  C   UNL     1       2.391  -2.620   0.146  1.00  0.00     0.039 A 
ATOM     16  C   UNL     1       3.326   0.020   0.320  1.00  0.00     0.049 A 
ATOM     17  C   UNL     1       1.960  -0.249   0.143  1.00  0.00     0.052 A 
BRANCH  13  18
ATOM     18  C   UNL     1       4.717  -3.541   0.393  1.00  0.00     0.416 C 
ATOM     19  F   UNL     1       6.010  -3.189   0.136  1.00  0.00    -0.166 F 
ATOM     20  F   UNL     1       4.730  -4.103   1.633  1.00  0.00    -0.166 F 
ATOM     21  F   UNL     1       4.433  -4.548  -0.477  1.00  0.00    -0.166 F 
ENDBRANCH  13  18
BRANCH  16  22
ATOM     22  N   UNL     1       3.782   1.364   0.449  1.00  0.00    -0.306 N 
ATOM     23  C   UNL     1       3.012   2.496   0.617  1.00  0.00     0.116 A 
ATOM     24  C   UNL     1       5.085   1.811   0.455  1.00  0.00     0.204 A 
ATOM     25  C   UNL     1       3.886   3.556   0.714  1.00  0.00     0.056 A 
ATOM     26  N   UNL     1       5.175   3.114   0.605  1.00  0.00    -0.242 NA
ATOM     27  C   UNL     1       3.594   4.992   0.910  1.00  0.00     0.068 C 
ENDBRANCH  16  22
ENDBRANCH   9  12
ENDBRANCH   1   8
BRANCH   2  28
ATOM     28  N   UNL     1      -4.793  -0.408   0.834  1.00  0.00    -0.324 N 
ATOM     29  H   UNL     1      -5.766  -0.475   1.090  1.00  0.00     0.170 HD
BRANCH  28  30
ATOM     30  C   UNL     1      -4.427   0.935   0.774  1.00  0.00     0.227 A 
ATOM     31  N   UNL     1      -3.271   1.320   0.212  1.00  0.00    -0.213 NA
ATOM     32  N   UNL     1      -5.339   1.797   1.243  1.00  0.00    -0.221 NA
ATOM     33  C   UNL     1      -3.019   2.645   0.094  1.00  0.00     0.077 A 
ATOM     34  C   UNL     1      -5.060   3.106   1.132  1.00  0.00     0.117 A 
ATOM     35  C   UNL     1      -3.911   3.589   0.558  1.00  0.00     0.049 A 
BRANCH  33  36
ATOM     36  C   UNL     1      -1.751   2.983  -0.579  1.00  0.00     0.019 A 
ATOM     37  C   UNL     1      -1.084   4.207  -0.416  1.00  0.00     0.013 A 
ATOM     38  C   UNL     1      -1.131   2.072  -1.439  1.00  0.00     0.121 A 
ATOM     39  C   UNL     1       0.111   4.463  -1.093  1.00  0.00     0.021 A 
ATOM     40  N   UNL     1       0.041   2.278  -2.091  1.00  0.00    -0.264 NA
ATOM     41  C   UNL     1       0.630   3.476  -1.912  1.00  0.00     0.111 A 
ENDBRANCH  33  36
ENDBRANCH  28  30
ENDBRANCH   2  28
TORSDOF 7
