REMARK SMILES CCN(CC)CCNC(=O)c1c(C)[nH]c(/C=C2\C(=O)Nc3ccc(F)cc32)c1C
REMARK SMILES IDX 7 1 8 2 9 3 10 4 11 6 15 7 14 8 28 9 12 10 29 12 13 13 16 14
REMARK SMILES IDX 24 15 26 16 23 17 27 18 22 19 17 20 21 21 18 22 20 23 19 24
REMARK SMILES IDX 25 25 6 27 3 28 2 29 1 30 4 31 5 32
REMARK H PARENT 8 5 14 11 20 26
ROOT
ATOM      1  C   UNL     1      -4.709  -1.089  -0.382  1.00  0.00     0.131 C 
ENDROOT
BRANCH   1   2
ATOM      2  N   UNL     1      -3.288  -0.793  -0.366  1.00  0.00    -0.351 N 
ATOM      3  C   UNL     1      -2.774   0.360  -0.918  1.00  0.00     0.253 C 
ATOM      4  O   UNL     1      -3.473   1.207  -1.463  1.00  0.00    -0.269 OA
ATOM      5  H   UNL     1      -2.691  -1.320   0.254  1.00  0.00     0.163 HD
BRANCH   3   6
ATOM      6  C   UNL     1      -1.325   0.512  -0.742  1.00  0.00     0.063 A 
ATOM      7  C   UNL     1       0.933   0.160  -0.535  1.00  0.00     0.043 A 
ATOM      8  N   UNL     1       0.652   1.495  -0.396  1.00  0.00    -0.358 N 
ATOM      9  C   UNL     1      -0.280  -0.483  -0.784  1.00  0.00    -0.013 A 
ATOM     10  C   UNL     1      -0.693   1.727  -0.526  1.00  0.00     0.025 A 
ATOM     11  H   UNL     1       1.339   2.226  -0.232  1.00  0.00     0.166 HD
ATOM     12  C   UNL     1      -0.458  -1.936  -1.079  1.00  0.00     0.047 C 
ATOM     13  C   UNL     1      -1.249   3.104  -0.427  1.00  0.00     0.065 C 
BRANCH   7  14
ATOM     14  C   UNL     1       2.260  -0.355  -0.441  1.00  0.00     0.041 C 
ATOM     15  C   UNL     1       6.461  -2.040  -0.179  1.00  0.00     0.123 A 
ATOM     16  C   UNL     1       5.102  -1.739  -0.285  1.00  0.00     0.050 A 
ATOM     17  C   UNL     1       7.428  -1.042   0.011  1.00  0.00     0.041 A 
ATOM     18  C   UNL     1       4.727  -0.409  -0.195  1.00  0.00     0.014 A 
ATOM     19  C   UNL     1       7.048   0.297   0.101  1.00  0.00     0.030 A 
ATOM     20  C   UNL     1       3.425   0.289  -0.258  1.00  0.00     0.051 C 
ATOM     21  C   UNL     1       5.700   0.580  -0.006  1.00  0.00     0.049 A 
ATOM     22  C   UNL     1       3.735   1.758  -0.085  1.00  0.00     0.256 C 
ATOM     23  N   UNL     1       5.110   1.835   0.056  1.00  0.00    -0.321 N 
ATOM     24  O   UNL     1       2.961   2.696  -0.063  1.00  0.00    -0.269 OA
ATOM     25  F   UNL     1       6.854  -3.318  -0.262  1.00  0.00    -0.207 F 
ATOM     26  H   UNL     1       5.594   2.711   0.188  1.00  0.00     0.170 HD
ENDBRANCH   7  14
ENDBRANCH   3   6
ENDBRANCH   1   2
BRANCH   1  27
ATOM     27  C   UNL     1      -5.504  -0.265   0.651  1.00  0.00     0.105 C 
BRANCH  27  28
ATOM     28  N   UNL     1      -6.910  -0.720   0.770  1.00  0.00    -0.302 NA
BRANCH  28  29
ATOM     29  C   UNL     1      -7.773   0.379   1.243  1.00  0.00     0.081 C 
ATOM     30  C   UNL     1      -8.109   1.361   0.124  1.00  0.00     0.021 C 
ENDBRANCH  28  29
BRANCH  28  31
ATOM     31  C   UNL     1      -6.995  -1.883   1.675  1.00  0.00     0.081 C 
ATOM     32  C   UNL     1      -8.266  -2.695   1.446  1.00  0.00     0.021 C 
ENDBRANCH  28  31
ENDBRANCH  27  28
ENDBRANCH   1  27
TORSDOF 7
